* GENERATED BY CHARMM-GUI (HTTP://WWW.CHARMM-GUI.ORG) V3.7 ON JUN, 17. 2026. JOB
* SETUP PERIODIC BOUNDARY CONDITION
*  DATE:     6/17/26     23:47: 8      CREATED BY USER: charmm-gui
*
     29212  EXT
         1         1  ASP       N              14.8565536478        1.8047485219       -4.4960466332  PROA      1              92.3600000000
         2         1  ASP       HT1            15.3797599642        1.6637275683       -3.6147552710  PROA      1               0.0000000000
         3         1  ASP       HT2            15.3194666274        2.5424414575       -5.0858894174  PROA      1               0.0000000000
         4         1  ASP       HT3            14.8400899319        0.9189280034       -5.0598596386  PROA      1               0.0000000000
         5         1  ASP       CA             13.4892282341        2.2731439185       -4.2912443731  PROA      1              93.9000000000
         6         1  ASP       HA             13.5409409607        3.2010832817       -3.7392272642  PROA      1               0.0000000000
         7         1  ASP       CB             12.7952955452        2.5073664591       -5.6344793580  PROA      1              87.2500000000
         8         1  ASP       HB1            11.7437516326        2.8394545792       -5.4828327563  PROA      1               0.0000000000
         9         1  ASP       HB2            12.7653780006        1.5766361276       -6.2365984276  PROA      1               0.0000000000
        10         1  ASP       CG             13.4622394412        3.5888108288       -6.4661607360  PROA      1              70.5200000000
        11         1  ASP       OD1            14.2772163158        4.3620624666       -5.9201409575  PROA      1              58.6300000000
        12         1  ASP       OD2            13.1670506921        3.6696001029       -7.6784930731  PROA      1              67.8900000000
        13         1  ASP       C              12.6884170351        1.2794928613       -3.4525716120  PROA      1              95.4900000000
        14         1  ASP       O              12.8740902579        0.0666765950       -3.5729009867  PROA      1              92.8200000000
        15         2  GLY       N              12.0270322062        1.4149767390       -2.1706194963  PROA      2              91.8000000000
        16         2  GLY       HN             12.0235494697        2.3708168870       -1.8674220642  PROA      2               0.0000000000
        17         2  GLY       CA             11.2435765350        0.6149871374       -1.2418133547  PROA      2              91.1700000000
        18         2  GLY       HA1            11.0876219139        1.1998097334       -0.3482051943  PROA      2               0.0000000000
        19         2  GLY       HA2            11.7821810304       -0.3041611472       -1.0667473556  PROA      2               0.0000000000
        20         2  GLY       C               9.8751476201        0.2451893866       -1.7810655482  PROA      2              91.8500000000
        21         2  GLY       O               9.4379209672        0.7801019634       -2.8023370055  PROA      2              88.7000000000
        22         3  ASP       N               9.2999924813       -0.6240059234       -1.1169525463  PROA      3              94.1300000000
        23         3  ASP       HN              9.6897180328       -1.1461824758       -0.3638431133  PROA      3               0.0000000000
        24         3  ASP       CA              7.9251030552       -0.9436237036       -1.4883290944  PROA      3              93.8800000000
        25         3  ASP       HA              7.8965328652       -1.2307019831       -2.5335334636  PROA      3               0.0000000000
        26         3  ASP       CB              7.4030953085       -2.1169743779       -0.6575101567  PROA      3              92.1700000000
        27         3  ASP       HB1             6.3694644804       -2.3788552668       -0.9675005692  PROA      3               0.0000000000
        28         3  ASP       HB2             7.3877801216       -1.8409041669        0.4191244012  PROA      3               0.0000000000
        29         3  ASP       CG              8.2492489037       -3.3699541278       -0.8024682184  PROA      3              87.3200000000
        30         3  ASP       OD1             8.2504280052       -3.9815356293       -1.8922942031  PROA      3              84.4800000000
        31         3  ASP       OD2             8.9178919901       -3.7493051950        0.1823059643  PROA      3              85.1600000000
        32         3  ASP       C               7.0129702577        0.2693963625       -1.3158035057  PROA      3              94.4200000000
        33         3  ASP       O               7.2878093827        1.1463957052       -0.4944645937  PROA      3              93.2400000000
        34         4  GLY       N               6.2232337163        0.7215454863       -2.3254135122  PROA      4              91.0200000000
        35         4  GLY       HN              6.1224746686        0.1624370888       -3.1498334755  PROA      4               0.0000000000
        36         4  GLY       CA              5.1855293813        1.7250313356       -2.1474841348  PROA      4              90.7600000000
        37         4  GLY       HA1             4.5331400442        1.6692805863       -2.9996102905  PROA      4               0.0000000000
        38         4  GLY       HA2             5.6856992138        2.6780662456       -2.0549945919  PROA      4               0.0000000000
        39         4  GLY       C               4.3608891287        1.5151275356       -0.8913974147  PROA      4              90.6200000000
        40         4  GLY       O               4.5405563684        0.5217345957       -0.1836939809  PROA      4              88.1700000000
        41         5  PRO       N               3.3541537948        2.4623143734       -0.4922795604  PROA      5              92.8900000000
        42         5  PRO       CD              3.0721841725        3.5896860491       -1.3191841722  PROA      5              88.7800000000
        43         5  PRO       HD1             2.8605789941        3.2735241017       -2.3680115919  PROA      5               0.0000000000
        44         5  PRO       HD2             3.9422907138        4.2850282779       -1.3003211906  PROA      5               0.0000000000
        45         5  PRO       CA              2.4348388379        2.2982079684        0.6364285941  PROA      5              93.2400000000
        46         5  PRO       HA              3.0285861991        2.0866086895        1.5106549686  PROA      5               0.0000000000
        47         5  PRO       CB              1.6862003587        3.6324011347        0.6787017828  PROA      5              92.1400000000
        48         5  PRO       HB1             2.1980573993        4.2942171292        1.4157528732  PROA      5               0.0000000000
        49         5  PRO       HB2             0.6195131926        3.5419944919        0.9822319703  PROA      5               0.0000000000
        50         5  PRO       CG              1.8594658329        4.2111163206       -0.6885157599  PROA      5              89.6700000000
        51         5  PRO       HG1             0.9711841601        3.9315417131       -1.3091331303  PROA      5               0.0000000000
        52         5  PRO       HG2             1.9374311566        5.3177456660       -0.6732708068  PROA      5               0.0000000000
        53         5  PRO       C               1.4649396145        1.1349005396        0.4425927811  PROA      5              93.9300000000
        54         5  PRO       O               1.2507302667        0.6861594770       -0.6873929773  PROA      5              93.0100000000
        55         6  GLY       N               1.1549827316        0.6158856346        1.4731393638  PROA      6              93.7200000000
        56         6  GLY       HN              1.4278728089        0.9617837231        2.3620729864  PROA      6               0.0000000000
        57         6  GLY       CA              0.2276498271       -0.5023413617        1.4175419792  PROA      6              93.7200000000
        58         6  GLY       HA1            -0.0273467315       -0.7674539249        2.4288015298  PROA      6               0.0000000000
        59         6  GLY       HA2             0.6799511588       -1.3177997657        0.8672419720  PROA      6               0.0000000000
        60         6  GLY       C              -1.0877859986       -0.1536409696        0.7462286210  PROA      6              95.0500000000
        61         6  GLY       O              -1.4326597924        1.0219661985        0.6193907220  PROA      6              94.6100000000
        62         7  ASP       N              -1.8841879049       -1.1337574110        0.1786004284  PROA      7              94.3900000000
        63         7  ASP       HN             -1.5376310860       -2.0591062048        0.0991885210  PROA      7               0.0000000000
        64         7  ASP       CA             -3.2365211599       -0.9845555939       -0.3507837279  PROA      7              94.8000000000
        65         7  ASP       HA             -3.1547256724       -0.2706724981       -1.1561291813  PROA      7               0.0000000000
        66         7  ASP       CB             -3.7612633838       -2.3256010988       -0.8662752917  PROA      7              93.4500000000
        67         7  ASP       HB1            -4.8606479287       -2.2762357764       -1.0417620077  PROA      7               0.0000000000
        68         7  ASP       HB2            -3.5888694618       -3.1156922279       -0.1196340947  PROA      7               0.0000000000
        69         7  ASP       CG             -3.1606114276       -2.7230560431       -2.2034150730  PROA      7              89.5100000000
        70         7  ASP       OD1            -2.5085821323       -1.8786777248       -2.8539825589  PROA      7              89.3900000000
        71         7  ASP       OD2            -3.3427213549       -3.8910782259       -2.6100625306  PROA      7              89.8300000000
        72         7  ASP       C              -4.1814776797       -0.4228577561        0.7090788644  PROA      7              96.0700000000
        73         7  ASP       O              -3.9724996348       -0.6283980433        1.9067517609  PROA      7              95.8400000000
        74         8  PRO       N              -5.2391121393        0.2901369645        0.4213187592  PROA      8              94.0000000000
        75         8  PRO       CD             -5.5027641484        0.7417073623       -0.8551446339  PROA      8              89.4200000000
        76         8  PRO       HD1            -5.8619337272       -0.1150635983       -1.4740994881  PROA      8               0.0000000000
        77         8  PRO       HD2            -4.6188539774        1.2185095582       -1.3408345877  PROA      8               0.0000000000
        78         8  PRO       CA             -6.2319881083        0.6375843293        1.4402611711  PROA      8              93.9500000000
        79         8  PRO       HA             -5.7337495423        1.1845097903        2.2279547632  PROA      8               0.0000000000
        80         8  PRO       CB             -7.2554963156        1.4712137467        0.6643958838  PROA      8              92.6200000000
        81         8  PRO       HB1            -7.5128131579        2.4065122170        1.2077925281  PROA      8               0.0000000000
        82         8  PRO       HB2            -8.2006278044        0.9026489369        0.4931372373  PROA      8               0.0000000000
        83         8  PRO       CG             -6.6084669761        1.7382571195       -0.6563084248  PROA      8              88.4000000000
        84         8  PRO       HG1            -7.3383121139        1.7106259563       -1.4940991085  PROA      8               0.0000000000
        85         8  PRO       HG2            -6.1661140760        2.7637083672       -0.6405932207  PROA      8               0.0000000000
        86         8  PRO       C              -6.8911135860       -0.5898035825        2.0659028567  PROA      8              95.1400000000
        87         8  PRO       O              -7.0061450562       -1.6320912743        1.4149496107  PROA      8              94.5900000000
        88         9  GLY       N              -7.1166771197       -0.5260373348        3.4354699263  PROA      9              94.5000000000
        89         9  GLY       HN             -6.8885135329        0.2768659126        3.9725738632  PROA      9               0.0000000000
        90         9  GLY       CA             -7.8141038082       -1.5886883979        4.1439173359  PROA      9              94.3800000000
        91         9  GLY       HA1            -7.8952482467       -1.2940036294        5.1783672710  PROA      9               0.0000000000
        92         9  GLY       HA2            -7.2645040362       -2.5084051982        3.9990591077  PROA      9               0.0000000000
        93         9  GLY       C              -9.2267669426       -1.8137449154        3.6408771459  PROA      9              95.5400000000
        94         9  GLY       O              -9.7974662537       -0.9515911649        2.9691486243  PROA      9              95.3200000000
        95        10  ASP       N              -9.8666950682       -2.8860353549        3.6867160756  PROA      10             95.6200000000
        96        10  ASP       HN             -9.3736399576       -3.6841767958        4.0184445947  PROA      10              0.0000000000
        97        10  ASP       CA            -11.2613683457       -3.1983429378        3.3892594858  PROA      10             95.3100000000
        98        10  ASP       HA            -11.4540025624       -2.9281217914        2.3583122204  PROA      10              0.0000000000
        99        10  ASP       CB            -11.5374109981       -4.6865143370        3.6093034375  PROA      10             92.8500000000
       100        10  ASP       HB1           -12.6314937056       -4.8834343403        3.5626926973  PROA      10              0.0000000000
       101        10  ASP       HB2           -11.1570610200       -5.0039500011        4.6011152536  PROA      10              0.0000000000
       102        10  ASP       CG            -10.9147763302       -5.5695957472        2.5414269029  PROA      10             84.1200000000
       103        10  ASP       OD1           -10.5668184649       -5.0592926751        1.4545151775  PROA      10             82.4000000000
       104        10  ASP       OD2           -10.7741637951       -6.7866370485        2.7879458394  PROA      10             84.4100000000
       105        10  ASP       C             -12.2059734698       -2.3570611971        4.2443619312  PROA      10             95.5200000000
       106        10  ASP       O             -11.9835219749       -2.1913228775        5.4454498306  PROA      10             94.0900000000
       107        11  GLY       N             -13.0758870743       -1.1170028432        3.6679639787  PROA      11             87.7200000000
       108        11  GLY       HN            -13.0309636621       -0.9876866112        2.6831431089  PROA      11              0.0000000000
       109        11  GLY       CA            -14.0410002406       -0.3017181382        4.3873292725  PROA      11             88.0300000000
       110        11  GLY       HA1           -14.5453977539        0.3313496063        3.6756620711  PROA      11              0.0000000000
       111        11  GLY       HA2           -13.4887842901        0.2417497363        5.1387143852  PROA      11              0.0000000000
       112        11  GLY       C             -15.0919964259       -1.1198263999        5.1131384006  PROA      11             88.2900000000
       113        11  GLY       OT1           -15.0289651629       -2.3751996816        5.0255885090  PROA      11              0.0000000000
       114        11  GLY       OT2           -15.9747780864       -0.5025568355        5.7668010237  PROA      11              0.0000000000
       115        12  TIP3      OH2            -2.5047049066      -41.0299596607      -17.2515016211  SOLV      1               0.0000000000
       116        12  TIP3      H1             -3.1901038690      -40.4900664989      -17.6948120137  SOLV      1               0.0000000000
       117        12  TIP3      H2             -2.6385892524      -40.7039566900      -16.3465256641  SOLV      1               0.0000000000
       118        13  TIP3      OH2            -8.1619034612      -33.0243335043      -20.7258750879  SOLV      2               0.0000000000
       119        13  TIP3      H1             -8.9477425609      -33.0747322685      -20.1349310557  SOLV      2               0.0000000000
       120        13  TIP3      H2             -8.3537897921      -32.2242920023      -21.2595788684  SOLV      2               0.0000000000
       121        14  TIP3      OH2            -6.1167606762      -34.1094498599      -17.5047125764  SOLV      3               0.0000000000
       122        14  TIP3      H1             -6.3218951526      -34.8726945709      -18.0802828588  SOLV      3               0.0000000000
       123        14  TIP3      H2             -6.2379747490      -33.3491361419      -18.1101000742  SOLV      3               0.0000000000
       124        15  TIP3      OH2            -4.0972652812      -37.5894405758      -18.8556987841  SOLV      4               0.0000000000
       125        15  TIP3      H1             -4.9397084466      -37.1510179178      -19.0801865570  SOLV      4               0.0000000000
       126        15  TIP3      H2             -3.8981357566      -38.1003888141      -19.6589752986  SOLV      4               0.0000000000
       127        16  TIP3      OH2            -7.4778196549      -38.7072868224      -16.4169319501  SOLV      5               0.0000000000
       128        16  TIP3      H1             -7.4836499048      -37.9212425795      -15.8489394609  SOLV      5               0.0000000000
       129        16  TIP3      H2             -8.3945539940      -38.7409945012      -16.7161731048  SOLV      5               0.0000000000
       130        17  TIP3      OH2           -10.4388872760      -33.0486014823      -19.3751715128  SOLV      6               0.0000000000
       131        17  TIP3      H1            -10.6157688857      -32.0804100685      -19.3418157078  SOLV      6               0.0000000000
       132        17  TIP3      H2            -10.8312334846      -33.3036056472      -18.5240627961  SOLV      6               0.0000000000
       133        18  TIP3      OH2           -15.2079128461      -33.7008860913      -13.3715172463  SOLV      7               0.0000000000
       134        18  TIP3      H1            -14.7756277995      -32.9433947919      -12.9350688804  SOLV      7               0.0000000000
       135        18  TIP3      H2            -15.7639100830      -34.0333032219      -12.6435526464  SOLV      7               0.0000000000
       136        19  TIP3      OH2           -17.3617222129      -32.0955160717      -13.9297580643  SOLV      8               0.0000000000
       137        19  TIP3      H1            -16.6625233333      -32.7723725816      -13.9989186335  SOLV      8               0.0000000000
       138        19  TIP3      H2            -17.1676650660      -31.7905620272      -13.0206845107  SOLV      8               0.0000000000
       139        20  TIP3      OH2            -3.6583518948      -30.4436691884      -17.1045185405  SOLV      9               0.0000000000
       140        20  TIP3      H1             -3.6066301068      -31.4157883523      -17.0061072876  SOLV      9               0.0000000000
       141        20  TIP3      H2             -4.5190454062      -30.2902914078      -16.6473487281  SOLV      9               0.0000000000
       142        21  TIP3      OH2           -12.5504113650      -32.8870997022      -15.3891535919  SOLV      10              0.0000000000
       143        21  TIP3      H1            -12.5863570774      -31.9172817633      -15.2234042342  SOLV      10              0.0000000000
       144        21  TIP3      H2            -13.4767460110      -33.1149064785      -15.2071445052  SOLV      10              0.0000000000
       145        22  TIP3      OH2            -4.8320633786      -38.9473358359      -13.9675382994  SOLV      11              0.0000000000
       146        22  TIP3      H1             -5.7231815731      -38.8716997118      -14.3409534662  SOLV      11              0.0000000000
       147        22  TIP3      H2             -4.5839732504      -39.8416280919      -14.3008898031  SOLV      11              0.0000000000
       148        23  TIP3      OH2            -7.1447085280      -41.1234046884      -14.6302101394  SOLV      12              0.0000000000
       149        23  TIP3      H1             -7.6300623424      -41.3348519354      -13.8001680477  SOLV      12              0.0000000000
       150        23  TIP3      H2             -7.7871705032      -40.5503800415      -15.0841143910  SOLV      12              0.0000000000
       151        24  TIP3      OH2            -9.8062854352      -39.1342719244      -12.8578897715  SOLV      13              0.0000000000
       152        24  TIP3      H1            -10.1494711387      -39.9616615492      -12.4753331274  SOLV      13              0.0000000000
       153        24  TIP3      H2             -8.8690639935      -39.1801142148      -12.5828032108  SOLV      13              0.0000000000
       154        25  TIP3      OH2            -6.7963432901      -27.1534323563      -16.0912156486  SOLV      14              0.0000000000
       155        25  TIP3      H1             -6.8895717658      -26.8757455183      -17.0199591597  SOLV      14              0.0000000000
       156        25  TIP3      H2             -6.1498525999      -26.5150054420      -15.7493944952  SOLV      14              0.0000000000
       157        26  TIP3      OH2            -6.6138148244      -36.2383954981      -19.3002996642  SOLV      15              0.0000000000
       158        26  TIP3      H1             -6.0972719117      -35.6504573269      -19.8996100719  SOLV      15              0.0000000000
       159        26  TIP3      H2             -7.4421698779      -36.2993601364      -19.8039181121  SOLV      15              0.0000000000
       160        27  TIP3      OH2           -10.9226033932      -35.0931396190      -15.2367460817  SOLV      16              0.0000000000
       161        27  TIP3      H1            -10.7334086880      -34.8785312521      -14.3026176332  SOLV      16              0.0000000000
       162        27  TIP3      H2            -11.4967315317      -34.3412271819      -15.4813303245  SOLV      16              0.0000000000
       163        28  TIP3      OH2           -12.0362083924      -37.7368610773      -12.3132800456  SOLV      17              0.0000000000
       164        28  TIP3      H1            -12.2884034220      -37.5477188832      -13.2505722046  SOLV      17              0.0000000000
       165        28  TIP3      H2            -11.1506357800      -38.1402971653      -12.4844973778  SOLV      17              0.0000000000
       166        29  TIP3      OH2            -9.9453258720      -32.4653237528      -16.5806479275  SOLV      18              0.0000000000
       167        29  TIP3      H1            -10.8658105813      -32.5978196251      -16.2975292883  SOLV      18              0.0000000000
       168        29  TIP3      H2             -9.5639670250      -32.1232193282      -15.7431323393  SOLV      18              0.0000000000
       169        30  TIP3      OH2            -3.6129953057      -33.3850887277      -16.6737200098  SOLV      19              0.0000000000
       170        30  TIP3      H1             -4.5874421825      -33.4967738637      -16.7196477025  SOLV      19              0.0000000000
       171        30  TIP3      H2             -3.3560091189      -33.7678194299      -17.5435073496  SOLV      19              0.0000000000
       172        31  TIP3      OH2            28.1784242650        9.9826217209       25.0414844419  SOLV      20              0.0000000000
       173        31  TIP3      H1             28.8680513145        9.3424890817       24.8096577899  SOLV      20              0.0000000000
       174        31  TIP3      H2             28.6896604489       10.7829479798       25.1991735548  SOLV      20              0.0000000000
       175        32  TIP3      OH2            -8.4454279782      -30.2809878616      -17.7021171015  SOLV      21              0.0000000000
       176        32  TIP3      H1             -9.1951869687      -30.9125144222      -17.6466230699  SOLV      21              0.0000000000
       177        32  TIP3      H2             -8.7138594492      -29.7057174798      -18.4504003480  SOLV      21              0.0000000000
       178        33  TIP3      OH2            -4.4362367536      -41.4129071581      -14.9475494637  SOLV      22              0.0000000000
       179        33  TIP3      H1             -5.4082983987      -41.4265287253      -14.8098605147  SOLV      22              0.0000000000
       180        33  TIP3      H2             -4.3663123887      -41.9295219259      -15.7631227727  SOLV      22              0.0000000000
       181        34  TIP3      OH2            -8.2934747224      -30.5548063303      -21.9342101700  SOLV      23              0.0000000000
       182        34  TIP3      H1             -8.7625778467      -29.9165550180      -22.5183933254  SOLV      23              0.0000000000
       183        34  TIP3      H2             -7.3609566135      -30.3102212571      -22.1280319852  SOLV      23              0.0000000000
       184        35  TIP3      OH2           -20.6528570966      -30.3513968420      -10.9764632616  SOLV      24              0.0000000000
       185        35  TIP3      H1            -20.2229539717      -29.5292508440      -11.3236303588  SOLV      24              0.0000000000
       186        35  TIP3      H2            -20.4101705430      -30.9645568750      -11.6904113844  SOLV      24              0.0000000000
       187        36  TIP3      OH2           -15.6285523244      -30.8645088083      -12.0315690489  SOLV      25              0.0000000000
       188        36  TIP3      H1            -14.8185541500      -30.7716393395      -11.5125802118  SOLV      25              0.0000000000
       189        36  TIP3      H2            -16.0192068937      -29.9744136471      -11.9406155962  SOLV      25              0.0000000000
       190        37  TIP3      OH2            -9.3253323402      -31.5164270147      -14.1386269035  SOLV      26              0.0000000000
       191        37  TIP3      H1             -9.4280664011      -32.2057098344      -13.4399957166  SOLV      26              0.0000000000
       192        37  TIP3      H2             -8.5839282307      -30.9826335775      -13.7937660543  SOLV      26              0.0000000000
       193        38  TIP3      OH2           -13.0033733229      -35.1960785174      -12.1744994459  SOLV      27              0.0000000000
       194        38  TIP3      H1            -13.3515827045      -35.2817829942      -13.0730799701  SOLV      27              0.0000000000
       195        38  TIP3      H2            -12.5238362259      -36.0427119793      -12.0717559741  SOLV      27              0.0000000000
       196        39  TIP3      OH2            -8.3138129007      -35.4660706750      -16.3051963765  SOLV      28              0.0000000000
       197        39  TIP3      H1             -7.7646777330      -34.7299102440      -16.6275165989  SOLV      28              0.0000000000
       198        39  TIP3      H2             -9.1718467570      -35.0409039676      -16.1176236460  SOLV      28              0.0000000000
       199        40  TIP3      OH2            -9.4805829603      -35.9300050469      -12.2348984962  SOLV      29              0.0000000000
       200        40  TIP3      H1             -8.7397234542      -36.2836881116      -12.7362401532  SOLV      29              0.0000000000
       201        40  TIP3      H2             -9.5479581875      -36.5782791790      -11.5034675837  SOLV      29              0.0000000000
       202        41  TIP3      OH2            -7.3559928361      -39.1638158688      -11.6752672950  SOLV      30              0.0000000000
       203        41  TIP3      H1             -7.0047041521      -39.9783826174      -11.2574807879  SOLV      30              0.0000000000
       204        41  TIP3      H2             -6.5614442244      -38.7652335028      -12.0545013000  SOLV      30              0.0000000000
       205        42  TIP3      OH2            -6.9855452876      -36.6507992083      -14.3036287065  SOLV      31              0.0000000000
       206        42  TIP3      H1             -7.5638849419      -36.1803910110      -14.9462763924  SOLV      31              0.0000000000
       207        42  TIP3      H2             -6.1064358073      -36.4359298662      -14.6900953978  SOLV      31              0.0000000000
       208        43  TIP3      OH2           -11.1047289927      -41.2261377766      -11.4739621373  SOLV      32              0.0000000000
       209        43  TIP3      H1            -10.3923457728      -41.4673678641      -10.8622320442  SOLV      32              0.0000000000
       210        43  TIP3      H2            -11.8704171444      -41.5860787032      -10.9929575872  SOLV      32              0.0000000000
       211        44  TIP3      OH2            -8.3136848695      -42.1219685962      -12.3399109399  SOLV      33              0.0000000000
       212        44  TIP3      H1             -9.1397425415      -42.6161480920      -12.2538360181  SOLV      33              0.0000000000
       213        44  TIP3      H2             -7.6587377485      -42.7503807787      -11.9777634064  SOLV      33              0.0000000000
       214        45  TIP3      OH2            -5.7551867388      -29.6156490990      -22.2037563012  SOLV      34              0.0000000000
       215        45  TIP3      H1             -5.5306487478      -29.3080045087      -21.3046676098  SOLV      34              0.0000000000
       216        45  TIP3      H2             -5.0907023093      -29.1618029646      -22.7461975980  SOLV      34              0.0000000000
       217        46  TIP3      OH2            -5.4330713400      -29.3547264269      -19.4084635988  SOLV      35              0.0000000000
       218        46  TIP3      H1             -5.9157307957      -30.2105156853      -19.4082241502  SOLV      35              0.0000000000
       219        46  TIP3      H2             -4.6867458481      -29.6171645609      -18.8514329771  SOLV      35              0.0000000000
       220        47  TIP3      OH2            -5.0329364582      -32.6587559897      -13.6230602398  SOLV      36              0.0000000000
       221        47  TIP3      H1             -5.7509654574      -32.5556237009      -12.9654006754  SOLV      36              0.0000000000
       222        47  TIP3      H2             -4.6160492705      -31.7744554814      -13.6026044094  SOLV      36              0.0000000000
       223        48  TIP3      OH2            -5.0848793072      -34.7879081990      -20.9176068302  SOLV      37              0.0000000000
       224        48  TIP3      H1             -4.3058615437      -35.2252882179      -21.3341271025  SOLV      37              0.0000000000
       225        48  TIP3      H2             -5.6759410477      -34.6616798705      -21.6888116960  SOLV      37              0.0000000000
       226        49  TIP3      OH2            -6.5222193146      -31.8019180680      -18.9759275993  SOLV      38              0.0000000000
       227        49  TIP3      H1             -7.2637932574      -31.3925672390      -18.4862529516  SOLV      38              0.0000000000
       228        49  TIP3      H2             -6.9913484710      -32.2659848846      -19.7065541332  SOLV      38              0.0000000000
       229        50  TIP3      OH2            -4.5642718937      -35.9654036829      -15.3862538016  SOLV      39              0.0000000000
       230        50  TIP3      H1             -3.8680829654      -36.6361278084      -15.5581588408  SOLV      39              0.0000000000
       231        50  TIP3      H2             -4.4124257369      -35.3234138221      -16.0943080948  SOLV      39              0.0000000000
       232        51  TIP3      OH2            -2.6857221741      -37.9077006706      -15.3378608751  SOLV      40              0.0000000000
       233        51  TIP3      H1             -3.4443232667      -38.2774629868      -14.8394610583  SOLV      40              0.0000000000
       234        51  TIP3      H2             -2.0040173333      -38.5725382862      -15.0982181973  SOLV      40              0.0000000000
       235        52  TIP3      OH2            -4.9300138675      -39.6911028939      -17.3269652107  SOLV      41              0.0000000000
       236        52  TIP3      H1             -5.8503634387      -39.4867709626      -17.0749514703  SOLV      41              0.0000000000
       237        52  TIP3      H2             -4.6904038599      -38.9139843403      -17.8630068764  SOLV      41              0.0000000000
       238        53  TIP3      OH2           -17.8480677529      -33.5430471859      -11.3945581826  SOLV      42              0.0000000000
       239        53  TIP3      H1            -18.8197381987      -33.5736240265      -11.4172869700  SOLV      42              0.0000000000
       240        53  TIP3      H2            -17.6781372721      -32.9197396380      -10.6735709142  SOLV      42              0.0000000000
       241        54  TIP3      OH2           -12.6754354377      -30.2168016444      -14.9540275981  SOLV      43              0.0000000000
       242        54  TIP3      H1            -12.3457247675      -30.1903645502      -14.0232091723  SOLV      43              0.0000000000
       243        54  TIP3      H2            -11.9614679692      -29.7280745026      -15.4109357410  SOLV      43              0.0000000000
       244        55  TIP3      OH2           -10.6610893737      -28.8055093953      -16.1332195327  SOLV      44              0.0000000000
       245        55  TIP3      H1             -9.9149257892      -29.2889389797      -16.5087737909  SOLV      44              0.0000000000
       246        55  TIP3      H2            -10.1947257648      -28.1956704049      -15.5118577978  SOLV      44              0.0000000000
       247        56  TIP3      OH2           -13.0845751336      -29.3688516977      -20.4016748438  SOLV      45              0.0000000000
       248        56  TIP3      H1            -14.0460625360      -29.5803629540      -20.4948438552  SOLV      45              0.0000000000
       249        56  TIP3      H2            -13.1752534943      -28.5282721292      -19.9425339894  SOLV      45              0.0000000000
       250        57  TIP3      OH2           -10.9918442086      -30.4432598212      -19.0788390807  SOLV      46              0.0000000000
       251        57  TIP3      H1            -11.8476182165      -30.2421818018      -19.5097245742  SOLV      46              0.0000000000
       252        57  TIP3      H2            -10.5258286444      -29.6140544175      -19.2434147104  SOLV      46              0.0000000000
       253        58  TIP3      OH2            -9.0006434187      -28.6405663640      -19.8931910177  SOLV      47              0.0000000000
       254        58  TIP3      H1             -9.1783295817      -27.7735264367      -20.3139664322  SOLV      47              0.0000000000
       255        58  TIP3      H2             -8.8155672673      -29.1960383708      -20.6754195532  SOLV      47              0.0000000000
       256        59  TIP3      OH2            -6.1751091132      -29.8321807164      -16.1223281844  SOLV      48              0.0000000000
       257        59  TIP3      H1             -6.9601986164      -30.1430940404      -16.6197081259  SOLV      48              0.0000000000
       258        59  TIP3      H2             -6.4066688700      -28.8856263424      -16.0207852670  SOLV      48              0.0000000000
       259        60  TIP3      OH2            -0.3674312339      -37.0054034447      -21.0334772298  SOLV      49              0.0000000000
       260        60  TIP3      H1             -0.3573756340      -37.8707712628      -20.5732783166  SOLV      49              0.0000000000
       261        60  TIP3      H2              0.2757851744      -36.5313523914      -20.4805349417  SOLV      49              0.0000000000
       262        61  TIP3      OH2            -0.8986814620      -33.1319990644      -23.7635246462  SOLV      50              0.0000000000
       263        61  TIP3      H1             -0.9683572121      -34.1076609575      -23.7333410368  SOLV      50              0.0000000000
       264        61  TIP3      H2              0.0582590476      -33.0318616354      -23.9527762923  SOLV      50              0.0000000000
       265        62  TIP3      OH2             4.9740300979      -29.3871993605      -27.3390095776  SOLV      51              0.0000000000
       266        62  TIP3      H1              5.7644261160      -29.6233595318      -27.8640836041  SOLV      51              0.0000000000
       267        62  TIP3      H2              5.0844545504      -28.4316988734      -27.2051544654  SOLV      51              0.0000000000
       268        63  TIP3      OH2             4.3242903074      -33.8853480943      -24.1376983081  SOLV      52              0.0000000000
       269        63  TIP3      H1              4.6553865441      -34.3965951510      -24.8875117312  SOLV      52              0.0000000000
       270        63  TIP3      H2              5.1740874747      -33.5028733923      -23.8143765637  SOLV      52              0.0000000000
       271        64  TIP3      OH2             2.8843398368      -34.6224124247      -21.8942216811  SOLV      53              0.0000000000
       272        64  TIP3      H1              2.2824708802      -33.9196149010      -21.5652087685  SOLV      53              0.0000000000
       273        64  TIP3      H2              3.3059800216      -34.1853504991      -22.6646041594  SOLV      53              0.0000000000
       274        65  TIP3      OH2             0.2070113113      -41.0386399458      -21.6181435728  SOLV      54              0.0000000000
       275        65  TIP3      H1              1.0111756371      -40.5101368989      -21.5182744763  SOLV      54              0.0000000000
       276        65  TIP3      H2              0.4409803249      -41.6253950790      -22.3493551661  SOLV      54              0.0000000000
       277        66  TIP3      OH2             1.1959679819      -32.6594708084      -20.8945299129  SOLV      55              0.0000000000
       278        66  TIP3      H1              0.9799026484      -31.7807766523      -21.2741131917  SOLV      55              0.0000000000
       279        66  TIP3      H2              0.3897977029      -32.8085262418      -20.3605270702  SOLV      55              0.0000000000
       280        67  TIP3      OH2             9.7313731120      -30.5155444498      -26.0854425417  SOLV      56              0.0000000000
       281        67  TIP3      H1              8.8427564535      -30.7536528240      -25.7384799336  SOLV      56              0.0000000000
       282        67  TIP3      H2              9.5205616649      -29.7101323918      -26.5953270313  SOLV      56              0.0000000000
       283        68  TIP3      OH2             6.9122472020      -30.2314836583      -29.2633867474  SOLV      57              0.0000000000
       284        68  TIP3      H1              7.2840547521      -30.8582346145      -29.8930196346  SOLV      57              0.0000000000
       285        68  TIP3      H2              7.0045343469      -29.4067040487      -29.7833578309  SOLV      57              0.0000000000
       286        69  TIP3      OH2            11.8201772363      -31.5700494312      -22.6155351873  SOLV      58              0.0000000000
       287        69  TIP3      H1             11.6067632356      -32.2378380173      -23.3082832137  SOLV      58              0.0000000000
       288        69  TIP3      H2             11.6302001416      -30.7373547427      -23.1031016279  SOLV      58              0.0000000000
       289        70  TIP3      OH2            10.4657090497      -36.2267954492      -21.2142875381  SOLV      59              0.0000000000
       290        70  TIP3      H1             10.1295224734      -35.3531032995      -20.9833408429  SOLV      59              0.0000000000
       291        70  TIP3      H2              9.7347168875      -36.5162247002      -21.8062315060  SOLV      59              0.0000000000
       292        71  TIP3      OH2             0.6479626196      -36.8481648582      -26.2894876517  SOLV      60              0.0000000000
       293        71  TIP3      H1              0.4560777665      -37.2290318597      -27.1626141236  SOLV      60              0.0000000000
       294        71  TIP3      H2              1.6043360722      -36.9911234272      -26.2876307351  SOLV      60              0.0000000000
       295        72  TIP3      OH2             1.6983182763      -32.9018586119      -24.7648171334  SOLV      61              0.0000000000
       296        72  TIP3      H1              1.5597363511      -33.1282749509      -25.6992722985  SOLV      61              0.0000000000
       297        72  TIP3      H2              2.6141211172      -33.2096305095      -24.6184112046  SOLV      61              0.0000000000
       298        73  TIP3      OH2             2.1106455198      -37.0030996881      -22.9643508365  SOLV      62              0.0000000000
       299        73  TIP3      H1              2.5019900641      -36.6422686718      -23.7617781977  SOLV      62              0.0000000000
       300        73  TIP3      H2              2.2598622378      -36.2482706540      -22.3554290127  SOLV      62              0.0000000000
       301        74  TIP3      OH2             7.3184426967      -30.7772807393      -24.8937765727  SOLV      63              0.0000000000
       302        74  TIP3      H1              7.0124476603      -29.9194003051      -24.5497105850  SOLV      63              0.0000000000
       303        74  TIP3      H2              6.9761905743      -31.4166711286      -24.2477702172  SOLV      63              0.0000000000
       304        75  TIP3      OH2             3.3427357099      -31.6053806338      -19.5636685510  SOLV      64              0.0000000000
       305        75  TIP3      H1              2.7215660262      -31.0075745187      -19.1339857971  SOLV      64              0.0000000000
       306        75  TIP3      H2              2.7250705875      -32.1546400015      -20.0928238755  SOLV      64              0.0000000000
       307        76  TIP3      OH2             0.8274695453      -35.8948337626      -18.5021130676  SOLV      65              0.0000000000
       308        76  TIP3      H1              0.8737768500      -35.0420238703      -18.0304210031  SOLV      65              0.0000000000
       309        76  TIP3      H2             -0.0728058006      -36.1919773961      -18.2435240539  SOLV      65              0.0000000000
       310        77  TIP3      OH2             3.5457930436      -30.8690065105      -29.1497444208  SOLV      66              0.0000000000
       311        77  TIP3      H1              3.9513355565      -30.4158071371      -28.3725824008  SOLV      66              0.0000000000
       312        77  TIP3      H2              2.9332328407      -30.1865247324      -29.4605888988  SOLV      66              0.0000000000
       313        78  TIP3      OH2            -2.9022924520      -34.4758972191      -19.0251236409  SOLV      67              0.0000000000
       314        78  TIP3      H1             -3.5562032682      -34.6776389069      -19.7213732407  SOLV      67              0.0000000000
       315        78  TIP3      H2             -2.5215062063      -35.3598454162      -18.8424157886  SOLV      67              0.0000000000
       316        79  TIP3      OH2            -4.5000943261      -32.5411923910      -23.0849412878  SOLV      68              0.0000000000
       317        79  TIP3      H1             -3.5533496006      -32.7258084905      -22.9683917058  SOLV      68              0.0000000000
       318        79  TIP3      H2             -4.6275899677      -31.8632037279      -22.3975495786  SOLV      68              0.0000000000
       319        80  TIP3      OH2            14.1997358448      -28.0081265577      -22.1692158667  SOLV      69              0.0000000000
       320        80  TIP3      H1             14.1680662893      -28.9745199050      -22.0772019437  SOLV      69              0.0000000000
       321        80  TIP3      H2             13.3484617891      -27.7592490346      -21.7463483240  SOLV      69              0.0000000000
       322        81  TIP3      OH2             5.3072582470      -30.2349243166      -20.8944308991  SOLV      70              0.0000000000
       323        81  TIP3      H1              5.2239887782      -29.3123811619      -20.5739461173  SOLV      70              0.0000000000
       324        81  TIP3      H2              4.5827010295      -30.6765569335      -20.4013454426  SOLV      70              0.0000000000
       325        82  TIP3      OH2             2.3224525252      -28.6926310095      -31.2318510588  SOLV      71              0.0000000000
       326        82  TIP3      H1              2.5862638258      -29.2688287824      -31.9571149649  SOLV      71              0.0000000000
       327        82  TIP3      H2              3.0605320851      -28.0664088486      -31.1858542321  SOLV      71              0.0000000000
       328        83  TIP3      OH2            -2.8451408581      -30.3802001991      -27.4840813382  SOLV      72              0.0000000000
       329        83  TIP3      H1             -2.2395290889      -30.6114984662      -26.7448639434  SOLV      72              0.0000000000
       330        83  TIP3      H2             -3.0345670515      -31.2348036778      -27.8994724769  SOLV      72              0.0000000000
       331        84  TIP3      OH2            13.3619833798      -36.0879101766      -19.6921001690  SOLV      73              0.0000000000
       332        84  TIP3      H1             12.4861170179      -36.2229843996      -20.1286081367  SOLV      73              0.0000000000
       333        84  TIP3      H2             13.5050277325      -37.0340135909      -19.4658856652  SOLV      73              0.0000000000
       334        85  TIP3      OH2            -0.9628114041      -32.5637688044      -19.1514718237  SOLV      74              0.0000000000
       335        85  TIP3      H1             -0.4117120900      -32.8725519223      -18.4037694586  SOLV      74              0.0000000000
       336        85  TIP3      H2             -1.6893221673      -33.2251132995      -19.1398772128  SOLV      74              0.0000000000
       337        86  TIP3      OH2            11.5063216919      -38.1285270560      -19.4662555024  SOLV      75              0.0000000000
       338        86  TIP3      H1             10.7563734692      -38.3458758472      -18.8912726926  SOLV      75              0.0000000000
       339        86  TIP3      H2             11.0542521226      -37.6556084623      -20.1982891491  SOLV      75              0.0000000000
       340        87  TIP3      OH2             2.2707967065      -39.1265783962      -21.1625309446  SOLV      76              0.0000000000
       341        87  TIP3      H1              1.6542432166      -38.9561756744      -20.4166058619  SOLV      76              0.0000000000
       342        87  TIP3      H2              2.0592084760      -38.3919586585      -21.7745770291  SOLV      76              0.0000000000
       343        88  TIP3      OH2             7.9837715628      -36.5060728301      -17.9423580179  SOLV      77              0.0000000000
       344        88  TIP3      H1              7.6465347974      -37.2361605771      -17.3683296122  SOLV      77              0.0000000000
       345        88  TIP3      H2              8.9193147061      -36.4822182166      -17.6564556465  SOLV      77              0.0000000000
       346        89  TIP3      OH2             0.5041224475      -38.8239131078      -19.1499283402  SOLV      78              0.0000000000
       347        89  TIP3      H1              0.7053583672      -38.3487991191      -18.3362774199  SOLV      78              0.0000000000
       348        89  TIP3      H2              0.3856458017      -39.7327634643      -18.7909159276  SOLV      78              0.0000000000
       349        90  TIP3      OH2             8.0840087919      -36.8800187548      -22.3848370182  SOLV      79              0.0000000000
       350        90  TIP3      H1              7.5955129007      -37.3994003550      -23.0356194548  SOLV      79              0.0000000000
       351        90  TIP3      H2              7.7281886702      -37.2501654526      -21.5448232969  SOLV      79              0.0000000000
       352        91  TIP3      OH2            11.1450720833      -24.5924451189      -21.2283369598  SOLV      80              0.0000000000
       353        91  TIP3      H1             11.0979256812      -24.3241997827      -22.1647658223  SOLV      80              0.0000000000
       354        91  TIP3      H2             11.9455541730      -24.1129653938      -20.9324500879  SOLV      80              0.0000000000
       355        92  TIP3      OH2             0.6915717542      -33.4164722502      -17.0257918283  SOLV      81              0.0000000000
       356        92  TIP3      H1              1.4970865123      -33.2154314746      -16.5083650832  SOLV      81              0.0000000000
       357        92  TIP3      H2              0.0460291573      -33.5473807509      -16.3012571440  SOLV      81              0.0000000000
       358        93  TIP3      OH2             4.7511899062      -39.8934116732      -21.9750260666  SOLV      82              0.0000000000
       359        93  TIP3      H1              3.9857964622      -39.4387710100      -21.5646969059  SOLV      82              0.0000000000
       360        93  TIP3      H2              5.4290912361      -39.8951183737      -21.2799660862  SOLV      82              0.0000000000
       361        94  TIP3      OH2            11.3068869786      -33.7225053282      -24.2643778553  SOLV      83              0.0000000000
       362        94  TIP3      H1             12.0855576349      -34.0758989395      -24.7124711637  SOLV      83              0.0000000000
       363        94  TIP3      H2             10.6835689313      -34.4602322780      -24.3482594585  SOLV      83              0.0000000000
       364        95  TIP3      OH2             6.3780380191      -32.8946061515      -20.6233905839  SOLV      84              0.0000000000
       365        95  TIP3      H1              6.6468361041      -33.0437490988      -19.7115879279  SOLV      84              0.0000000000
       366        95  TIP3      H2              6.1058216385      -31.9596524069      -20.6171115129  SOLV      84              0.0000000000
       367        96  TIP3      OH2            -0.7366622940      -35.9503656795      -23.9445474501  SOLV      85              0.0000000000
       368        96  TIP3      H1             -0.1857621724      -36.2422668549      -24.6938817144  SOLV      85              0.0000000000
       369        96  TIP3      H2             -0.3351793206      -36.4097174647      -23.1863633308  SOLV      85              0.0000000000
       370        97  TIP3      OH2            -1.7198136822      -36.6595635015      -17.7359329898  SOLV      86              0.0000000000
       371        97  TIP3      H1             -1.6851109272      -36.8758229773      -16.7822533929  SOLV      86              0.0000000000
       372        97  TIP3      H2             -2.4834897130      -37.2055181654      -18.0156646469  SOLV      86              0.0000000000
       373        98  TIP3      OH2             5.4362498398      -35.4436346099      -17.5535895869  SOLV      87              0.0000000000
       374        98  TIP3      H1              4.8142285787      -36.0819269546      -17.9475122666  SOLV      87              0.0000000000
       375        98  TIP3      H2              6.2931765109      -35.7658328960      -17.9015716198  SOLV      87              0.0000000000
       376        99  TIP3      OH2             8.0241347579      -30.4130527946      -21.5808202438  SOLV      88              0.0000000000
       377        99  TIP3      H1              7.0569404978      -30.3055794541      -21.5382468611  SOLV      88              0.0000000000
       378        99  TIP3      H2              8.3042554603      -29.7998764789      -20.8697954007  SOLV      88              0.0000000000
       379       100  TIP3      OH2            14.4275140183      -31.0302027581      -21.8366922397  SOLV      89              0.0000000000
       380       100  TIP3      H1             13.4601113729      -31.1908080856      -21.8860578665  SOLV      89              0.0000000000
       381       100  TIP3      H2             14.6907473790      -31.1629583175      -22.7612305728  SOLV      89              0.0000000000
       382       101  TIP3      OH2             0.2828452334      -32.6756550774      -27.6323977411  SOLV      90              0.0000000000
       383       101  TIP3      H1              0.4206783623      -31.8100543044      -28.0680484397  SOLV      90              0.0000000000
       384       101  TIP3      H2             -0.5104770049      -32.9716998471      -28.0918962263  SOLV      90              0.0000000000
       385       102  TIP3      OH2             2.2636253049      -34.6875456867      -27.2411452190  SOLV      91              0.0000000000
       386       102  TIP3      H1              1.9586878994      -33.9453997087      -27.7918308731  SOLV      91              0.0000000000
       387       102  TIP3      H2              1.4581644737      -35.2254563384      -27.2128196598  SOLV      91              0.0000000000
       388       103  TIP3      OH2             3.1018747781      -29.3316644520      -23.0151289724  SOLV      92              0.0000000000
       389       103  TIP3      H1              3.4797159958      -28.6048896948      -23.5603026530  SOLV      92              0.0000000000
       390       103  TIP3      H2              3.9093949055      -29.7019590283      -22.6286775030  SOLV      92              0.0000000000
       391       104  TIP3      OH2            -0.2763036585      -30.2945949542      -29.0224897865  SOLV      93              0.0000000000
       392       104  TIP3      H1             -1.1987248325      -30.1041508657      -28.8011221372  SOLV      93              0.0000000000
       393       104  TIP3      H2              0.0708930584      -29.3762831406      -29.0614136654  SOLV      93              0.0000000000
       394       105  TIP3      OH2             6.8130453337      -33.1478828216      -23.2904738949  SOLV      94              0.0000000000
       395       105  TIP3      H1              6.7049235900      -33.0995468776      -22.3134485129  SOLV      94              0.0000000000
       396       105  TIP3      H2              7.7084489073      -33.5024668803      -23.3595876541  SOLV      94              0.0000000000
       397       106  TIP3      OH2             9.3844095386      -27.7147723816      -22.9029368208  SOLV      95              0.0000000000
       398       106  TIP3      H1              8.5561367154      -28.2149833305      -23.0434033266  SOLV      95              0.0000000000
       399       106  TIP3      H2              9.2971910441      -27.0380573829      -23.6129343414  SOLV      95              0.0000000000
       400       107  TIP3      OH2             0.2745264479      -40.9617256449      -17.5249226183  SOLV      96              0.0000000000
       401       107  TIP3      H1             -0.6967622748      -41.0634868775      -17.4937246167  SOLV      96              0.0000000000
       402       107  TIP3      H2              0.5900406516      -41.7550484198      -17.0656075471  SOLV      96              0.0000000000
       403       108  TIP3      OH2            -2.6178221458      -30.8006942845      -21.4420292872  SOLV      97              0.0000000000
       404       108  TIP3      H1             -2.0168657722      -31.4501544560      -21.0399502445  SOLV      97              0.0000000000
       405       108  TIP3      H2             -2.3448206921      -29.9849242954      -21.0018509003  SOLV      97              0.0000000000
       406       109  TIP3      OH2             7.1721452462      -37.9905760214      -20.1190752482  SOLV      98              0.0000000000
       407       109  TIP3      H1              7.4533634541      -37.5283624202      -19.3054001393  SOLV      98              0.0000000000
       408       109  TIP3      H2              7.1724523678      -38.9183960967      -19.8388506248  SOLV      98              0.0000000000
       409       110  TIP3      OH2            -0.2502745723      -32.0583946587      -31.3046792194  SOLV      99              0.0000000000
       410       110  TIP3      H1              0.1313359257      -31.8304604526      -32.1639784698  SOLV      99              0.0000000000
       411       110  TIP3      H2             -0.2498044827      -31.2153799626      -30.8144651015  SOLV      99              0.0000000000
       412       111  TIP3      OH2             9.5449719776      -27.8691929398      -26.9845854840  SOLV      100             0.0000000000
       413       111  TIP3      H1              9.1004467684      -27.5033184005      -27.7798927922  SOLV      100             0.0000000000
       414       111  TIP3      H2             10.4849972502      -27.6581681017      -27.1945717223  SOLV      100             0.0000000000
       415       112  TIP3      OH2            -2.5874987378      -27.7968965982      -17.1107462494  SOLV      101             0.0000000000
       416       112  TIP3      H1             -2.5347066100      -27.9306837107      -16.1496856852  SOLV      101             0.0000000000
       417       112  TIP3      H2             -3.0557676751      -28.6246053417      -17.3558854973  SOLV      101             0.0000000000
       418       113  TIP3      OH2             8.5226873188      -28.9291901482      -19.3066704232  SOLV      102             0.0000000000
       419       113  TIP3      H1              8.4635368702      -29.6236754214      -18.6120084277  SOLV      102             0.0000000000
       420       113  TIP3      H2              9.3067057226      -28.4197533433      -19.0209558053  SOLV      102             0.0000000000
       421       114  TIP3      OH2            -1.3297475320      -33.5939538051      -15.1293909921  SOLV      103             0.0000000000
       422       114  TIP3      H1             -1.2014953107      -34.5570385323      -15.0322510381  SOLV      103             0.0000000000
       423       114  TIP3      H2             -2.2056038269      -33.5554206956      -15.5748689877  SOLV      103             0.0000000000
       424       115  TIP3      OH2             4.7030087505      -32.7442565721      -17.3954040347  SOLV      104             0.0000000000
       425       115  TIP3      H1              4.3357943290      -32.5502242834      -18.2812243953  SOLV      104             0.0000000000
       426       115  TIP3      H2              4.9889547683      -33.6799173795      -17.4871298610  SOLV      104             0.0000000000
       427       116  TIP3      OH2             9.5978410504      -32.6308026539      -21.2974297098  SOLV      105             0.0000000000
       428       116  TIP3      H1             10.3313307961      -32.1863390861      -21.7649963126  SOLV      105             0.0000000000
       429       116  TIP3      H2              8.9023667310      -31.9448518837      -21.4103890322  SOLV      105             0.0000000000
       430       117  TIP3      OH2            -0.0301380085      -36.1575257433      -15.3025570735  SOLV      106             0.0000000000
       431       117  TIP3      H1              0.7400373564      -36.6700155970      -15.5743436841  SOLV      106             0.0000000000
       432       117  TIP3      H2              0.2392294969      -35.8422869625      -14.4142424811  SOLV      106             0.0000000000
       433       118  TIP3      OH2             3.2587374545      -37.3233981597      -18.5621252732  SOLV      107             0.0000000000
       434       118  TIP3      H1              2.4220383024      -36.8290232768      -18.6784319561  SOLV      107             0.0000000000
       435       118  TIP3      H2              3.7533095497      -37.0458465247      -19.3706821857  SOLV      107             0.0000000000
       436       119  TIP3      OH2             8.4585405495      -33.3720583312      -17.2934237268  SOLV      108             0.0000000000
       437       119  TIP3      H1              8.8962712260      -33.9724226344      -17.9068868682  SOLV      108             0.0000000000
       438       119  TIP3      H2              8.2326356271      -33.9814709451      -16.5659490336  SOLV      108             0.0000000000
       439       120  TIP3      OH2             4.3452583471      -39.4412784327      -17.2875266430  SOLV      109             0.0000000000
       440       120  TIP3      H1              4.1953948189      -40.3099500422      -17.6893403267  SOLV      109             0.0000000000
       441       120  TIP3      H2              3.8983467666      -38.8291201854      -17.9158742139  SOLV      109             0.0000000000
       442       121  TIP3      OH2             4.6317095519      -36.2808404917      -20.5728803877  SOLV      110             0.0000000000
       443       121  TIP3      H1              5.4951850558      -36.2919210285      -21.0026451841  SOLV      110             0.0000000000
       444       121  TIP3      H2              4.1266937242      -35.6230211142      -21.0938198263  SOLV      110             0.0000000000
       445       122  TIP3      OH2            10.4820555500      -36.5293056873      -16.8411031544  SOLV      111             0.0000000000
       446       122  TIP3      H1             10.5238504970      -37.4942453199      -16.6494641794  SOLV      111             0.0000000000
       447       122  TIP3      H2             11.4058692890      -36.3396685373      -17.0351562108  SOLV      111             0.0000000000
       448       123  TIP3      OH2            11.3762156573      -33.8146858551      -19.6650980239  SOLV      112             0.0000000000
       449       123  TIP3      H1             10.5044657418      -33.3683353053      -19.7607957948  SOLV      112             0.0000000000
       450       123  TIP3      H2             11.5857807756      -33.8195120978      -20.6097955983  SOLV      112             0.0000000000
       451       124  TIP3      OH2             3.0818682389      -38.1077671655      -15.1122380941  SOLV      113             0.0000000000
       452       124  TIP3      H1              2.3930250946      -38.7943448030      -15.0090858626  SOLV      113             0.0000000000
       453       124  TIP3      H2              3.4881653583      -38.3778411247      -15.9589476453  SOLV      113             0.0000000000
       454       125  TIP3      OH2             6.9269104948      -38.6326953188      -16.7085430188  SOLV      114             0.0000000000
       455       125  TIP3      H1              7.1160511487      -39.2580080777      -15.9804073419  SOLV      114             0.0000000000
       456       125  TIP3      H2              6.0055295499      -38.8964087779      -16.9244056330  SOLV      114             0.0000000000
       457       126  TIP3      OH2             9.9757509064      -39.2480201115      -17.0906861078  SOLV      115             0.0000000000
       458       126  TIP3      H1              9.0611366510      -39.4228344811      -16.8152258389  SOLV      115             0.0000000000
       459       126  TIP3      H2             10.4737534395      -39.8899159919      -16.5371647633  SOLV      115             0.0000000000
       460       127  TIP3      OH2             1.5104184749      -40.2913234325      -14.5730731662  SOLV      116             0.0000000000
       461       127  TIP3      H1              1.6100157155      -41.1071270047      -15.1051538562  SOLV      116             0.0000000000
       462       127  TIP3      H2              2.1289655134      -40.4753369050      -13.8527727971  SOLV      116             0.0000000000
       463       128  TIP3      OH2            -0.5107367599      -29.5484406117      -33.6361092793  SOLV      117             0.0000000000
       464       128  TIP3      H1              0.3816195738      -29.7997798218      -33.9044637440  SOLV      117             0.0000000000
       465       128  TIP3      H2             -0.8905402053      -29.2318909136      -34.4622831498  SOLV      117             0.0000000000
       466       129  TIP3      OH2            -6.3541045052      -29.5780179460      -27.0369821627  SOLV      118             0.0000000000
       467       129  TIP3      H1             -7.2487642522      -29.3195433208      -26.7467716351  SOLV      118             0.0000000000
       468       129  TIP3      H2             -6.1216968780      -30.2738319058      -26.4041990098  SOLV      118             0.0000000000
       469       130  TIP3      OH2            -5.1332047523      -31.5989914916      -25.4966901261  SOLV      119             0.0000000000
       470       130  TIP3      H1             -5.0057724026      -31.9105676178      -24.5625282500  SOLV      119             0.0000000000
       471       130  TIP3      H2             -4.5354096972      -30.8263064073      -25.4551010799  SOLV      119             0.0000000000
       472       131  TIP3      OH2            12.0706690884      -26.9504741497      -27.3340165691  SOLV      120             0.0000000000
       473       131  TIP3      H1             12.4523206839      -26.6352943790      -26.4990995125  SOLV      120             0.0000000000
       474       131  TIP3      H2             12.8083336915      -26.8459765645      -27.9594120188  SOLV      120             0.0000000000
       475       132  TIP3      OH2            12.4561324186      -26.8210146345      -24.4734818960  SOLV      121             0.0000000000
       476       132  TIP3      H1             12.0228260365      -27.6963900439      -24.5451242361  SOLV      121             0.0000000000
       477       132  TIP3      H2             13.2484435079      -27.0669926116      -23.9739240402  SOLV      121             0.0000000000
       478       133  TIP3      OH2            12.9938682984      -30.3806415517      -18.6010338839  SOLV      122             0.0000000000
       479       133  TIP3      H1             12.2292316369      -30.1542003177      -18.0346761242  SOLV      122             0.0000000000
       480       133  TIP3      H2             13.4149469053      -29.5072200402      -18.6990215959  SOLV      122             0.0000000000
       481       134  TIP3      OH2            11.2525782306      -29.3424252661      -24.1618203759  SOLV      123             0.0000000000
       482       134  TIP3      H1             10.4974035095      -28.8764494877      -23.7522651683  SOLV      123             0.0000000000
       483       134  TIP3      H2             10.8085623881      -29.7940675229      -24.9198638739  SOLV      123             0.0000000000
       484       135  TIP3      OH2            -2.9255710467      -36.1827770295      -21.6045627285  SOLV      124             0.0000000000
       485       135  TIP3      H1             -3.1397712660      -36.9854125179      -22.1200795521  SOLV      124             0.0000000000
       486       135  TIP3      H2             -1.9685171032      -36.3264125500      -21.4377781401  SOLV      124             0.0000000000
       487       136  TIP3      OH2            -1.1939338885      -40.0680545712      -14.6584379829  SOLV      125             0.0000000000
       488       136  TIP3      H1             -0.2136424155      -40.0893227044      -14.7083121818  SOLV      125             0.0000000000
       489       136  TIP3      H2             -1.4219599681      -41.0022868215      -14.7570501618  SOLV      125             0.0000000000
       490       137  TIP3      OH2             7.4225379146      -28.1688770871      -30.9815704762  SOLV      126             0.0000000000
       491       137  TIP3      H1              8.3389827039      -28.4821289533      -31.1534704218  SOLV      126             0.0000000000
       492       137  TIP3      H2              7.6140174873      -27.4902081645      -30.3047583796  SOLV      126             0.0000000000
       493       138  TIP3      OH2            -0.6634714886      -29.8762050181      -16.7329451270  SOLV      127             0.0000000000
       494       138  TIP3      H1             -1.4150855985      -30.3620850302      -17.1211439116  SOLV      127             0.0000000000
       495       138  TIP3      H2             -0.5750003472      -30.3768427565      -15.9023176034  SOLV      127             0.0000000000
       496       139  TIP3      OH2             0.9005156906      -29.9668595506      -21.4824122555  SOLV      128             0.0000000000
       497       139  TIP3      H1              0.4189674749      -29.1964953312      -21.8498753979  SOLV      128             0.0000000000
       498       139  TIP3      H2              1.7508796301      -29.8274489688      -21.9477022654  SOLV      128             0.0000000000
       499       140  TIP3      OH2             5.1395965841      -27.5431443431      -20.0625376233  SOLV      129             0.0000000000
       500       140  TIP3      H1              5.6004823203      -27.5742119698      -19.1958967264  SOLV      129             0.0000000000
       501       140  TIP3      H2              5.8039847657      -27.0527204692      -20.5970081848  SOLV      129             0.0000000000
       502       141  TIP3      OH2             6.9796921066      -26.0419131277      -21.4254302893  SOLV      130             0.0000000000
       503       141  TIP3      H1              7.6649894203      -26.4881698121      -21.9432936268  SOLV      130             0.0000000000
       504       141  TIP3      H2              7.5323131220      -25.4794673243      -20.8383678443  SOLV      130             0.0000000000
       505       142  TIP3      OH2            -2.5066354058      -27.5072461978      -21.1092118438  SOLV      131             0.0000000000
       506       142  TIP3      H1             -3.3806195464      -27.2274021538      -21.4644718753  SOLV      131             0.0000000000
       507       142  TIP3      H2             -2.4449792454      -26.8947702567      -20.3666801219  SOLV      131             0.0000000000
       508       143  TIP3      OH2            -0.0999448579      -27.6580125954      -22.5526680829  SOLV      132             0.0000000000
       509       143  TIP3      H1             -0.9950957633      -27.5352010167      -22.1775089838  SOLV      132             0.0000000000
       510       143  TIP3      H2             -0.2417180978      -27.3532053610      -23.4751714831  SOLV      132             0.0000000000
       511       144  TIP3      OH2             4.1656392097      -27.3640655889      -24.6645980460  SOLV      133             0.0000000000
       512       144  TIP3      H1              3.4873490794      -27.2497925583      -25.3647842360  SOLV      133             0.0000000000
       513       144  TIP3      H2              4.2869360737      -26.4402358177      -24.3714885063  SOLV      133             0.0000000000
       514       145  TIP3      OH2             6.8500121370      -28.0483490009      -24.1017941005  SOLV      134             0.0000000000
       515       145  TIP3      H1              5.9117765399      -27.8624678378      -24.3119000716  SOLV      134             0.0000000000
       516       145  TIP3      H2              7.2980594023      -27.3508629046      -24.6079180297  SOLV      134             0.0000000000
       517       146  TIP3      OH2             8.9180103648      -26.0817009727      -25.0058901346  SOLV      135             0.0000000000
       518       146  TIP3      H1              8.7642900873      -25.2307286707      -25.4715197966  SOLV      135             0.0000000000
       519       146  TIP3      H2              9.1751340418      -26.6678082875      -25.7540870722  SOLV      135             0.0000000000
       520       147  TIP3      OH2            -3.3821170529      -29.5536973417      -23.8736099666  SOLV      136             0.0000000000
       521       147  TIP3      H1             -3.1460524952      -29.8758659540      -22.9799079494  SOLV      136             0.0000000000
       522       147  TIP3      H2             -2.6580093887      -29.9819866881      -24.3847321145  SOLV      136             0.0000000000
       523       148  TIP3      OH2            -1.4414187594      -30.8798405967      -25.2107311327  SOLV      137             0.0000000000
       524       148  TIP3      H1             -1.2450186016      -31.7037658861      -24.7059594780  SOLV      137             0.0000000000
       525       148  TIP3      H2             -0.5427909179      -30.4825046307      -25.2547912372  SOLV      137             0.0000000000
       526       149  TIP3      OH2             1.1645040727      -29.8820825474      -25.1056826831  SOLV      138             0.0000000000
       527       149  TIP3      H1              1.6195628266      -30.6806134259      -25.4118229626  SOLV      138             0.0000000000
       528       149  TIP3      H2              1.7097725528      -29.6541573858      -24.3290361300  SOLV      138             0.0000000000
       529       150  TIP3      OH2            11.6502011769      -27.2956095376      -21.2163588239  SOLV      139             0.0000000000
       530       150  TIP3      H1             10.8932920509      -27.5699180577      -21.7745544312  SOLV      139             0.0000000000
       531       150  TIP3      H2             11.5045538207      -26.3263635200      -21.1923096984  SOLV      139             0.0000000000
       532       151  TIP3      OH2            20.9954049672      -29.0320908435      -23.8321906905  SOLV      140             0.0000000000
       533       151  TIP3      H1             20.5679215011      -28.1827493162      -23.6140733562  SOLV      140             0.0000000000
       534       151  TIP3      H2             20.9412159400      -29.0137990605      -24.7964806308  SOLV      140             0.0000000000
       535       152  TIP3      OH2            19.0287569530      -27.0180567836      -23.6625648007  SOLV      141             0.0000000000
       536       152  TIP3      H1             18.7335207608      -27.0597864145      -24.5987692907  SOLV      141             0.0000000000
       537       152  TIP3      H2             18.2540900644      -27.3661728794      -23.1720875141  SOLV      141             0.0000000000
       538       153  TIP3      OH2            16.5881043065      -30.2260946897      -24.2138114792  SOLV      142             0.0000000000
       539       153  TIP3      H1             17.3127404834      -30.1980793628      -23.5638905972  SOLV      142             0.0000000000
       540       153  TIP3      H2             16.9781258119      -30.7686744847      -24.9309298468  SOLV      142             0.0000000000
       541       154  TIP3      OH2            18.6229518873      -30.8679775358      -22.1510839175  SOLV      143             0.0000000000
       542       154  TIP3      H1             19.4548460823      -30.6116304080      -21.7061472818  SOLV      143             0.0000000000
       543       154  TIP3      H2             17.9785688946      -30.7008511448      -21.4464491120  SOLV      143             0.0000000000
       544       155  TIP3      OH2            15.5600304011      -28.1158239567      -26.2264528804  SOLV      144             0.0000000000
       545       155  TIP3      H1             15.8677456084      -28.6922674009      -25.4976884537  SOLV      144             0.0000000000
       546       155  TIP3      H2             15.8665665584      -27.2435281346      -25.9326281993  SOLV      144             0.0000000000
       547       156  TIP3      OH2            15.3431996391      -25.0247617730      -22.2515454598  SOLV      145             0.0000000000
       548       156  TIP3      H1             16.2092282803      -24.9908957501      -21.7808960804  SOLV      145             0.0000000000
       549       156  TIP3      H2             15.1694000826      -25.9794120354      -22.2602285420  SOLV      145             0.0000000000
       550       157  TIP3      OH2            20.0738369647      -25.5078450903      -21.6862870979  SOLV      146             0.0000000000
       551       157  TIP3      H1             21.0130552397      -25.7396771905      -21.7590317508  SOLV      146             0.0000000000
       552       157  TIP3      H2             19.7207928090      -25.9927066827      -22.4654519318  SOLV      146             0.0000000000
       553       158  TIP3      OH2            16.5797888477      -31.0997125059      -20.1549131736  SOLV      147             0.0000000000
       554       158  TIP3      H1             16.7452762944      -32.0362195059      -20.3251561662  SOLV      147             0.0000000000
       555       158  TIP3      H2             15.7584541007      -30.9526798996      -20.6783121473  SOLV      147             0.0000000000
       556       159  TIP3      OH2            17.3711960321      -34.1547184604      -20.0256479499  SOLV      148             0.0000000000
       557       159  TIP3      H1             18.0027095064      -34.2240434968      -20.7619220454  SOLV      148             0.0000000000
       558       159  TIP3      H2             17.8862552476      -33.6285744508      -19.3771297011  SOLV      148             0.0000000000
       559       160  TIP3      OH2            16.9881899819      -27.8280915791      -21.9618066134  SOLV      149             0.0000000000
       560       160  TIP3      H1             16.0755875374      -28.0609827908      -22.2095185329  SOLV      149             0.0000000000
       561       160  TIP3      H2             16.9182358383      -27.7385670005      -21.0035175942  SOLV      149             0.0000000000
       562       161  TIP3      OH2            18.5791272373      -27.3277913659      -26.3766525589  SOLV      150             0.0000000000
       563       161  TIP3      H1             18.4394559708      -26.5301754342      -26.9307364458  SOLV      150             0.0000000000
       564       161  TIP3      H2             19.3401432697      -27.7392611709      -26.8304248401  SOLV      150             0.0000000000
       565       162  TIP3      OH2            22.9259259550      -24.6907084169      -24.8910401487  SOLV      151             0.0000000000
       566       162  TIP3      H1             23.4833152333      -24.7871025994      -24.0964769168  SOLV      151             0.0000000000
       567       162  TIP3      H2             23.5010136686      -25.0993028493      -25.5578861475  SOLV      151             0.0000000000
       568       163  TIP3      OH2            24.8649155672      -22.9252136499      -26.7724608458  SOLV      152             0.0000000000
       569       163  TIP3      H1             25.7179567972      -23.1057204944      -27.2147433093  SOLV      152             0.0000000000
       570       163  TIP3      H2             25.1847078523      -22.4971681660      -25.9609168277  SOLV      152             0.0000000000
       571       164  TIP3      OH2            15.4686451724      -24.9143002253      -26.3221946289  SOLV      153             0.0000000000
       572       164  TIP3      H1             14.5610910359      -24.5758994428      -26.5037707926  SOLV      153             0.0000000000
       573       164  TIP3      H2             15.7210860148      -24.3301986935      -25.5905554666  SOLV      153             0.0000000000
       574       165  TIP3      OH2            17.8879798369      -25.0471643537      -27.7619133261  SOLV      154             0.0000000000
       575       165  TIP3      H1             17.0057665362      -24.9530634036      -27.3471063154  SOLV      154             0.0000000000
       576       165  TIP3      H2             17.6974241950      -24.7555089682      -28.6795602115  SOLV      154             0.0000000000
       577       166  TIP3      OH2            14.5612018276      -26.8118221914      -28.7320326465  SOLV      155             0.0000000000
       578       166  TIP3      H1             14.8534312744      -26.9379818798      -27.8108733093  SOLV      155             0.0000000000
       579       166  TIP3      H2             15.3237727013      -27.1605186944      -29.2166414317  SOLV      155             0.0000000000
       580       167  TIP3      OH2           -27.1862250679      -18.4978766629      -16.0324193036  SOLV      156             0.0000000000
       581       167  TIP3      H1            -27.0310596971      -19.0852654466      -16.7788710502  SOLV      156             0.0000000000
       582       167  TIP3      H2            -27.4626513859      -17.6714925380      -16.4685936957  SOLV      156             0.0000000000
       583       168  TIP3      OH2           -26.4019618473      -23.7457584027      -12.4803621075  SOLV      157             0.0000000000
       584       168  TIP3      H1            -27.2392843941      -23.6439820500      -12.9738807489  SOLV      157             0.0000000000
       585       168  TIP3      H2            -26.0870313616      -24.5926075584      -12.8681475209  SOLV      157             0.0000000000
       586       169  TIP3      OH2           -28.3552029867      -11.6647200421      -14.5636650482  SOLV      158             0.0000000000
       587       169  TIP3      H1            -28.4587702474      -11.3802267675      -15.4904204151  SOLV      158             0.0000000000
       588       169  TIP3      H2            -27.6247668385      -11.0871766378      -14.2677894613  SOLV      158             0.0000000000
       589       170  TIP3      OH2           -30.9314455298      -17.0751638903      -15.3065810608  SOLV      159             0.0000000000
       590       170  TIP3      H1            -31.8394473361      -17.3773038456      -15.1569144600  SOLV      159             0.0000000000
       591       170  TIP3      H2            -30.7159439173      -16.7658408745      -14.4019967699  SOLV      159             0.0000000000
       592       171  TIP3      OH2           -30.0451615038      -14.5927449365      -16.1975702013  SOLV      160             0.0000000000
       593       171  TIP3      H1            -30.7334712993      -15.2849382874      -16.1164526830  SOLV      160             0.0000000000
       594       171  TIP3      H2            -30.3506864866      -14.0662962646      -16.9731770498  SOLV      160             0.0000000000
       595       172  TIP3      OH2           -37.2156651595      -15.0912028204       -9.9100657409  SOLV      161             0.0000000000
       596       172  TIP3      H1            -36.3022708172      -15.3611490278       -9.7321472846  SOLV      161             0.0000000000
       597       172  TIP3      H2            -37.3314381331      -15.4589141287      -10.7995976656  SOLV      161             0.0000000000
       598       173  TIP3      OH2           -30.8398459637      -16.0502163414      -12.7286192088  SOLV      162             0.0000000000
       599       173  TIP3      H1            -31.0723640475      -16.7037367292      -12.0327051247  SOLV      162             0.0000000000
       600       173  TIP3      H2            -30.2387692283      -15.4403738518      -12.2628368050  SOLV      162             0.0000000000
       601       174  TIP3      OH2           -31.0787976370      -20.3891205517      -10.6115965903  SOLV      163             0.0000000000
       602       174  TIP3      H1            -30.2342990090      -20.4521438972      -11.0836544138  SOLV      163             0.0000000000
       603       174  TIP3      H2            -30.8608520954      -20.8473814435       -9.7745902884  SOLV      163             0.0000000000
       604       175  TIP3      OH2           -28.4085194154      -23.1111768947      -10.2447366096  SOLV      164             0.0000000000
       605       175  TIP3      H1            -28.6849177920      -24.0264708432      -10.0678775385  SOLV      164             0.0000000000
       606       175  TIP3      H2            -27.6181254017      -23.2175893940      -10.7970315173  SOLV      164             0.0000000000
       607       176  TIP3      OH2           -28.3551239604      -20.7838758822      -12.5397261251  SOLV      165             0.0000000000
       608       176  TIP3      H1            -29.0836382652      -20.7740283041      -13.1916677329  SOLV      165             0.0000000000
       609       176  TIP3      H2            -27.5759890379      -20.6856097856      -13.1226730498  SOLV      165             0.0000000000
       610       177  TIP3      OH2           -27.4882136431      -13.9861840589      -20.8465568038  SOLV      166             0.0000000000
       611       177  TIP3      H1            -27.3061746480      -13.6337534957      -19.9627702838  SOLV      166             0.0000000000
       612       177  TIP3      H2            -26.7473583430      -13.6364348054      -21.3637544564  SOLV      166             0.0000000000
       613       178  TIP3      OH2           -27.2155777754      -13.8054617302      -17.9720585283  SOLV      167             0.0000000000
       614       178  TIP3      H1            -27.5875297869      -14.7065108946      -17.9238782276  SOLV      167             0.0000000000
       615       178  TIP3      H2            -26.2725722377      -13.9711575436      -17.8596762286  SOLV      167             0.0000000000
       616       179  TIP3      OH2           -28.3921283878      -16.3903330680      -17.5098444109  SOLV      168             0.0000000000
       617       179  TIP3      H1            -29.0169428108      -15.9052327747      -16.9304192595  SOLV      168             0.0000000000
       618       179  TIP3      H2            -28.9567264332      -16.6111763327      -18.2623770591  SOLV      168             0.0000000000
       619       180  TIP3      OH2           -26.1165515991      -20.4409967209      -14.1526443572  SOLV      169             0.0000000000
       620       180  TIP3      H1            -25.3195143491      -21.0234952600      -14.1825749618  SOLV      169             0.0000000000
       621       180  TIP3      H2            -25.9935318206      -19.8461264603      -14.9147441327  SOLV      169             0.0000000000
       622       181  TIP3      OH2           -24.3259872078      -22.3953884690      -13.7098716278  SOLV      170             0.0000000000
       623       181  TIP3      H1            -25.0121100270      -22.9042420471      -13.2364982086  SOLV      170             0.0000000000
       624       181  TIP3      H2            -23.5498830404      -22.9931715740      -13.5968721196  SOLV      170             0.0000000000
       625       182  TIP3      OH2           -22.4093612293      -28.3444922863      -10.3652470030  SOLV      171             0.0000000000
       626       182  TIP3      H1            -21.9306177042      -29.1930422600      -10.4788565211  SOLV      171             0.0000000000
       627       182  TIP3      H2            -22.1650161334      -27.9012095612      -11.1932266081  SOLV      171             0.0000000000
       628       183  TIP3      OH2           -23.3518961568      -26.6431026245      -12.4522102774  SOLV      172             0.0000000000
       629       183  TIP3      H1            -24.1170624869      -26.8827191627      -11.9063932717  SOLV      172             0.0000000000
       630       183  TIP3      H2            -23.1171740530      -27.5004178708      -12.8806735509  SOLV      172             0.0000000000
       631       184  TIP3      OH2           -34.4488877762      -14.2950442660      -13.3718042869  SOLV      173             0.0000000000
       632       184  TIP3      H1            -33.9748087777      -14.5092801378      -12.5412948434  SOLV      173             0.0000000000
       633       184  TIP3      H2            -33.7026597049      -13.9564962386      -13.9064799022  SOLV      173             0.0000000000
       634       185  TIP3      OH2           -32.3449348180      -13.1337551340      -14.7673871915  SOLV      174             0.0000000000
       635       185  TIP3      H1            -31.5104210487      -13.5706812123      -14.9987401365  SOLV      174             0.0000000000
       636       185  TIP3      H2            -31.9996350287      -12.4408113929      -14.1641001023  SOLV      174             0.0000000000
       637       186  TIP3      OH2           -30.3863777700      -13.0207350724      -18.4644328990  SOLV      175             0.0000000000
       638       186  TIP3      H1            -30.7378948382      -12.1385904843      -18.7060449523  SOLV      175             0.0000000000
       639       186  TIP3      H2            -30.1164113552      -13.3432417663      -19.3304815091  SOLV      175             0.0000000000
       640       187  TIP3      OH2           -27.6213360695      -14.3560605914      -14.4672997709  SOLV      176             0.0000000000
       641       187  TIP3      H1            -28.3708229712      -14.6380048192      -15.0306213769  SOLV      176             0.0000000000
       642       187  TIP3      H2            -27.8420866743      -13.3979181454      -14.4224416270  SOLV      176             0.0000000000
       643       188  TIP3      OH2           -14.8585550018      -20.4877029650      -26.8799512849  SOLV      177             0.0000000000
       644       188  TIP3      H1            -15.0448537764      -19.5414766113      -27.0632955958  SOLV      177             0.0000000000
       645       188  TIP3      H2            -15.6089830746      -20.8914522312      -27.3287556592  SOLV      177             0.0000000000
       646       189  TIP3      OH2           -15.1507983124      -20.3742154072      -23.0210626571  SOLV      178             0.0000000000
       647       189  TIP3      H1            -14.7461050939      -20.4693716584      -22.1338265540  SOLV      178             0.0000000000
       648       189  TIP3      H2            -15.6544568416      -21.2097576108      -23.0716674552  SOLV      178             0.0000000000
       649       190  TIP3      OH2           -22.1009593111      -21.2991764587      -19.5154758470  SOLV      179             0.0000000000
       650       190  TIP3      H1            -22.1662075186      -22.0990252851      -18.9704785927  SOLV      179             0.0000000000
       651       190  TIP3      H2            -21.2423977796      -20.9592333954      -19.2216814050  SOLV      179             0.0000000000
       652       191  TIP3      OH2           -12.7384437994      -17.5267981635      -26.2332215711  SOLV      180             0.0000000000
       653       191  TIP3      H1            -12.8097972204      -18.1789682432      -25.5231363144  SOLV      180             0.0000000000
       654       191  TIP3      H2            -12.3982802268      -16.7484891720      -25.7590326418  SOLV      180             0.0000000000
       655       192  TIP3      OH2           -22.5730257402      -17.4716404807      -22.2460245107  SOLV      181             0.0000000000
       656       192  TIP3      H1            -22.7514810226      -18.3315247052      -21.8299821834  SOLV      181             0.0000000000
       657       192  TIP3      H2            -21.6056730916      -17.4752903492      -22.3446353752  SOLV      181             0.0000000000
       658       193  TIP3      OH2           -16.0528059349      -12.9866068404      -25.9834459520  SOLV      182             0.0000000000
       659       193  TIP3      H1            -15.6946903710      -13.6179036559      -26.6460948033  SOLV      182             0.0000000000
       660       193  TIP3      H2            -16.2042053806      -13.5817475477      -25.2373689343  SOLV      182             0.0000000000
       661       194  TIP3      OH2           -17.1497108989      -18.2478787960      -22.6714123289  SOLV      183             0.0000000000
       662       194  TIP3      H1            -16.6670243271      -19.0248817840      -23.0055398171  SOLV      183             0.0000000000
       663       194  TIP3      H2            -16.3661838399      -17.7215877478      -22.4017127500  SOLV      183             0.0000000000
       664       195  TIP3      OH2            -6.9825585925      -25.0722568262      -22.6675319247  SOLV      184             0.0000000000
       665       195  TIP3      H1             -6.7181522076      -24.2488696454      -22.2085846488  SOLV      184             0.0000000000
       666       195  TIP3      H2             -6.7316031157      -24.8600739510      -23.5852157840  SOLV      184             0.0000000000
       667       196  TIP3      OH2           -12.7137382383      -23.1663139768      -21.9332798551  SOLV      185             0.0000000000
       668       196  TIP3      H1            -12.3897554948      -24.0561210025      -21.7186053820  SOLV      185             0.0000000000
       669       196  TIP3      H2            -13.0739961976      -23.3176430085      -22.8270787902  SOLV      185             0.0000000000
       670       197  TIP3      OH2            -6.2879901312      -22.9777685164      -20.9545884811  SOLV      186             0.0000000000
       671       197  TIP3      H1             -7.1403542717      -22.5319961197      -21.1462331214  SOLV      186             0.0000000000
       672       197  TIP3      H2             -6.0808726914      -22.5943680886      -20.0841195176  SOLV      186             0.0000000000
       673       198  TIP3      OH2           -16.2931712602      -18.4537209106      -28.0149072088  SOLV      187             0.0000000000
       674       198  TIP3      H1            -16.7069180341      -18.6504830474      -28.8678109303  SOLV      187             0.0000000000
       675       198  TIP3      H2            -16.5490532230      -17.5135706260      -27.9305963464  SOLV      187             0.0000000000
       676       199  TIP3      OH2           -18.6025657023      -18.9692576269      -20.3313174730  SOLV      188             0.0000000000
       677       199  TIP3      H1            -19.2444460727      -18.3207977421      -19.9671161039  SOLV      188             0.0000000000
       678       199  TIP3      H2            -18.2274683276      -18.4845137897      -21.0912781584  SOLV      188             0.0000000000
       679       200  TIP3      OH2           -10.4909498827      -25.8007807535      -24.6653728725  SOLV      189             0.0000000000
       680       200  TIP3      H1            -10.6399076094      -26.2271982586      -23.8101075231  SOLV      189             0.0000000000
       681       200  TIP3      H2            -10.1647819905      -24.9227073784      -24.3872080084  SOLV      189             0.0000000000
       682       201  TIP3      OH2           -20.4257790621      -17.0791669421      -19.3923737937  SOLV      190             0.0000000000
       683       201  TIP3      H1            -20.7175432002      -16.2107718801      -19.7367310087  SOLV      190             0.0000000000
       684       201  TIP3      H2            -21.1759678596      -17.2921775452      -18.8032553054  SOLV      190             0.0000000000
       685       202  TIP3      OH2           -12.0904330672      -15.0511311595      -24.6607655701  SOLV      191             0.0000000000
       686       202  TIP3      H1            -12.9935375099      -15.1400127056      -24.2814065244  SOLV      191             0.0000000000
       687       202  TIP3      H2            -12.1554681873      -14.1819346068      -25.1044995770  SOLV      191             0.0000000000
       688       203  TIP3      OH2            -9.0530981622      -26.0534188572      -20.9493933647  SOLV      192             0.0000000000
       689       203  TIP3      H1             -9.9392170090      -25.8381723279      -21.2829883959  SOLV      192             0.0000000000
       690       203  TIP3      H2             -8.4773889658      -25.7613151647      -21.6863570409  SOLV      192             0.0000000000
       691       204  TIP3      OH2           -15.1183170030      -14.5944789477      -27.9742367188  SOLV      193             0.0000000000
       692       204  TIP3      H1            -14.6370566950      -15.4427195312      -28.1384169437  SOLV      193             0.0000000000
       693       204  TIP3      H2            -14.4613817751      -13.9693042920      -28.3579076747  SOLV      193             0.0000000000
       694       205  TIP3      OH2           -13.7069169270      -16.7663570012      -28.7362924773  SOLV      194             0.0000000000
       695       205  TIP3      H1            -13.5961180981      -17.4940904485      -29.3826409195  SOLV      194             0.0000000000
       696       205  TIP3      H2            -13.3026093325      -17.1541864101      -27.9320720373  SOLV      194             0.0000000000
       697       206  TIP3      OH2            -9.7946913020      -15.9741491066      -21.1995482595  SOLV      195             0.0000000000
       698       206  TIP3      H1             -9.9049733321      -16.7447974247      -21.7967416025  SOLV      195             0.0000000000
       699       206  TIP3      H2             -9.9538020093      -15.2236234042      -21.8107377487  SOLV      195             0.0000000000
       700       207  TIP3      OH2            -7.8351034604      -19.5886020097      -22.7479928714  SOLV      196             0.0000000000
       701       207  TIP3      H1             -8.6684473813      -19.0695665976      -22.7073977652  SOLV      196             0.0000000000
       702       207  TIP3      H2             -7.5129290268      -19.3200009501      -23.6369092299  SOLV      196             0.0000000000
       703       208  TIP3      OH2           -13.2485790934      -21.1156487051      -28.9789623685  SOLV      197             0.0000000000
       704       208  TIP3      H1            -13.6995133403      -20.8803107005      -28.1414619185  SOLV      197             0.0000000000
       705       208  TIP3      H2            -12.4114081988      -21.4787221515      -28.6252866061  SOLV      197             0.0000000000
       706       209  TIP3      OH2           -11.0425961376      -20.8041966231      -19.7328519787  SOLV      198             0.0000000000
       707       209  TIP3      H1            -11.0385812263      -19.9958521559      -19.1798462832  SOLV      198             0.0000000000
       708       209  TIP3      H2            -11.8915071198      -20.6991446851      -20.1962462555  SOLV      198             0.0000000000
       709       210  TIP3      OH2           -19.7146598221      -17.1689284088      -23.2779451539  SOLV      199             0.0000000000
       710       210  TIP3      H1            -19.8839751920      -17.6074375431      -24.1196412629  SOLV      199             0.0000000000
       711       210  TIP3      H2            -18.8121384515      -17.4895996257      -23.0674710985  SOLV      199             0.0000000000
       712       211  TIP3      OH2           -19.4126076791      -21.4701894988      -21.1997054480  SOLV      200             0.0000000000
       713       211  TIP3      H1            -18.6186542156      -21.6772700726      -21.7058025911  SOLV      200             0.0000000000
       714       211  TIP3      H2            -19.1320988531      -20.6608324870      -20.7250549272  SOLV      200             0.0000000000
       715       212  TIP3      OH2           -14.5128491137      -15.1278873516      -23.4361729213  SOLV      201             0.0000000000
       716       212  TIP3      H1            -14.5585721240      -14.3410722564      -22.8639014445  SOLV      201             0.0000000000
       717       212  TIP3      H2            -14.6252413572      -15.8640895868      -22.8014937724  SOLV      201             0.0000000000
       718       213  TIP3      OH2           -18.2538749746      -15.9683531827      -18.0247943227  SOLV      202             0.0000000000
       719       213  TIP3      H1            -18.8193681097      -15.3335313295      -17.5378662935  SOLV      202             0.0000000000
       720       213  TIP3      H2            -18.9298101558      -16.4946684969      -18.4967496946  SOLV      202             0.0000000000
       721       214  TIP3      OH2           -20.7968682306      -20.0954803275      -17.1079494644  SOLV      203             0.0000000000
       722       214  TIP3      H1            -20.7702337430      -19.4061610928      -16.4240360720  SOLV      203             0.0000000000
       723       214  TIP3      H2            -21.6357465139      -20.5398154166      -16.8900914448  SOLV      203             0.0000000000
       724       215  TIP3      OH2           -17.5662087268      -15.9903035076      -28.2454634313  SOLV      204             0.0000000000
       725       215  TIP3      H1            -16.8563341872      -15.3449802711      -28.0656037355  SOLV      204             0.0000000000
       726       215  TIP3      H2            -18.3682244356      -15.4456650711      -28.2478866223  SOLV      204             0.0000000000
       727       216  TIP3      OH2           -20.3224132602      -14.2961521115      -17.2046691129  SOLV      205             0.0000000000
       728       216  TIP3      H1            -20.5617319188      -14.1373397518      -18.1419442691  SOLV      205             0.0000000000
       729       216  TIP3      H2            -20.9814577837      -14.9502549018      -16.9439898412  SOLV      205             0.0000000000
       730       217  TIP3      OH2           -11.6766157382      -16.1100863785      -34.3979237401  SOLV      206             0.0000000000
       731       217  TIP3      H1            -11.5858642831      -15.1900300697      -34.7356690240  SOLV      206             0.0000000000
       732       217  TIP3      H2            -10.7431594604      -16.4136898228      -34.4578168145  SOLV      206             0.0000000000
       733       218  TIP3      OH2           -24.4343795169      -18.7740901463      -17.4013980165  SOLV      207             0.0000000000
       734       218  TIP3      H1            -24.9386105967      -18.8001435878      -18.2409405320  SOLV      207             0.0000000000
       735       218  TIP3      H2            -24.2120361265      -19.7097769963      -17.2297691725  SOLV      207             0.0000000000
       736       219  TIP3      OH2           -25.3901001130      -16.4279993764      -22.2050437567  SOLV      208             0.0000000000
       737       219  TIP3      H1            -24.5329312692      -16.7400356708      -21.8775641372  SOLV      208             0.0000000000
       738       219  TIP3      H2            -25.7885184285      -16.0443446362      -21.4114507102  SOLV      208             0.0000000000
       739       220  TIP3      OH2            -7.3878527824      -12.4779065099      -20.7008743854  SOLV      209             0.0000000000
       740       220  TIP3      H1             -7.4084044422      -13.4365127559      -20.5259852913  SOLV      209             0.0000000000
       741       220  TIP3      H2             -8.2174958747      -12.2018279115      -20.2488727861  SOLV      209             0.0000000000
       742       221  TIP3      OH2           -16.3910842368      -14.6147388433      -19.4602401455  SOLV      210             0.0000000000
       743       221  TIP3      H1            -16.3928237441      -13.7078341692      -19.0805197194  SOLV      210             0.0000000000
       744       221  TIP3      H2            -17.0503294629      -15.0612690265      -18.8824607046  SOLV      210             0.0000000000
       745       222  TIP3      OH2           -18.4473571183      -12.9475129661      -30.1807194704  SOLV      211             0.0000000000
       746       222  TIP3      H1            -19.3245351518      -13.0947872503      -30.5899208784  SOLV      211             0.0000000000
       747       222  TIP3      H2            -18.6595504229      -12.1742891230      -29.6225401447  SOLV      211             0.0000000000
       748       223  TIP3      OH2           -16.1951605782      -14.1596454633      -30.9957332795  SOLV      212             0.0000000000
       749       223  TIP3      H1            -17.0175460682      -13.8045185055      -30.5828608039  SOLV      212             0.0000000000
       750       223  TIP3      H2            -15.6496742099      -14.3310713803      -30.2109186306  SOLV      212             0.0000000000
       751       224  TIP3      OH2            -8.5078662800      -21.2366157833      -17.9616676785  SOLV      213             0.0000000000
       752       224  TIP3      H1             -9.3787865185      -21.1282927665      -18.3704935093  SOLV      213             0.0000000000
       753       224  TIP3      H2             -8.3732460948      -22.2007669899      -18.0450472848  SOLV      213             0.0000000000
       754       225  TIP3      OH2           -22.4901144920      -16.8968351023      -17.4682343059  SOLV      214             0.0000000000
       755       225  TIP3      H1            -21.9898084471      -17.3118812501      -16.7315871286  SOLV      214             0.0000000000
       756       225  TIP3      H2            -23.2503372131      -17.5248663458      -17.5064856023  SOLV      214             0.0000000000
       757       226  TIP3      OH2           -12.7446060429      -27.5558203385      -17.5342143177  SOLV      215             0.0000000000
       758       226  TIP3      H1            -11.9756637042      -27.9644381395      -17.0621660732  SOLV      215             0.0000000000
       759       226  TIP3      H2            -13.3391474110      -27.3680293264      -16.8081254129  SOLV      215             0.0000000000
       760       227  TIP3      OH2           -10.7918402085      -23.3942053716      -18.6887423370  SOLV      216             0.0000000000
       761       227  TIP3      H1            -11.3539781073      -23.4485279842      -17.8844078131  SOLV      216             0.0000000000
       762       227  TIP3      H2            -11.0836398714      -22.5563048815      -19.0969237963  SOLV      216             0.0000000000
       763       228  TIP3      OH2           -18.9759628319      -23.7578714904      -19.6073234519  SOLV      217             0.0000000000
       764       228  TIP3      H1            -19.4686977166      -23.5948961573      -18.7724635994  SOLV      217             0.0000000000
       765       228  TIP3      H2            -19.4076221554      -23.1046775995      -20.1861735663  SOLV      217             0.0000000000
       766       229  TIP3      OH2           -13.7871801883      -21.2712524809      -16.4347974294  SOLV      218             0.0000000000
       767       229  TIP3      H1            -14.0319336854      -21.9398348455      -15.7550747987  SOLV      218             0.0000000000
       768       229  TIP3      H2            -12.8601551383      -21.1031466429      -16.1841944761  SOLV      218             0.0000000000
       769       230  TIP3      OH2           -13.8018017048      -23.3763298684      -24.4163133771  SOLV      219             0.0000000000
       770       230  TIP3      H1            -14.3370264787      -22.8849582850      -25.0688453886  SOLV      219             0.0000000000
       771       230  TIP3      H2            -13.6502921295      -24.2011134144      -24.9116752826  SOLV      219             0.0000000000
       772       231  TIP3      OH2           -20.4800076877      -23.1140409847      -17.4167559778  SOLV      220             0.0000000000
       773       231  TIP3      H1            -20.3285402445      -22.9249473004      -16.4801644647  SOLV      220             0.0000000000
       774       231  TIP3      H2            -21.0537633915      -23.9036993052      -17.3495313274  SOLV      220             0.0000000000
       775       232  TIP3      OH2           -13.9701227245      -21.1751642925      -20.6513598466  SOLV      221             0.0000000000
       776       232  TIP3      H1            -13.4562774905      -21.8632664193      -21.1296643994  SOLV      221             0.0000000000
       777       232  TIP3      H2            -14.2332482949      -21.7042212103      -19.8684078481  SOLV      221             0.0000000000
       778       233  TIP3      OH2           -12.1287803218      -25.9324323237      -21.9335572711  SOLV      222             0.0000000000
       779       233  TIP3      H1            -12.3827151480      -25.8164589237      -20.9894399351  SOLV      222             0.0000000000
       780       233  TIP3      H2            -12.8561047510      -26.4729427049      -22.2487313245  SOLV      222             0.0000000000
       781       234  TIP3      OH2           -10.4330452912       -9.0065294033      -19.6962381590  SOLV      223             0.0000000000
       782       234  TIP3      H1            -10.4336635193       -8.7015676720      -20.6196743847  SOLV      223             0.0000000000
       783       234  TIP3      H2             -9.6457083247       -8.5421415521      -19.3455893470  SOLV      223             0.0000000000
       784       235  TIP3      OH2           -21.0535951872      -17.8848211208      -15.3168293333  SOLV      224             0.0000000000
       785       235  TIP3      H1            -20.2206848967      -17.5288198449      -14.9332625852  SOLV      224             0.0000000000
       786       235  TIP3      H2            -21.3152952820      -18.4943987832      -14.6077697123  SOLV      224             0.0000000000
       787       236  TIP3      OH2           -16.2002748838      -22.9074686283      -22.6783313946  SOLV      225             0.0000000000
       788       236  TIP3      H1            -15.2703234939      -23.1523327280      -22.7562772565  SOLV      225             0.0000000000
       789       236  TIP3      H2            -16.3964530468      -23.2238081472      -21.7707811343  SOLV      225             0.0000000000
       790       237  TIP3      OH2           -16.3536809879      -23.9607261198      -20.2241737849  SOLV      226             0.0000000000
       791       237  TIP3      H1            -17.2377628939      -23.7106776329      -19.8535823545  SOLV      226             0.0000000000
       792       237  TIP3      H2            -15.7426731476      -23.4986818186      -19.6122065398  SOLV      226             0.0000000000
       793       238  TIP3      OH2           -10.1593776206      -18.1220400330      -22.8889210687  SOLV      227             0.0000000000
       794       238  TIP3      H1             -9.9103085223      -17.5973593412      -23.6809508405  SOLV      227             0.0000000000
       795       238  TIP3      H2            -11.0086189265      -18.5283770142      -23.1665777332  SOLV      227             0.0000000000
       796       239  TIP3      OH2           -15.1840572331      -17.3283465928      -19.1583209697  SOLV      228             0.0000000000
       797       239  TIP3      H1            -14.8379561604      -17.5802962190      -18.2913102516  SOLV      228             0.0000000000
       798       239  TIP3      H2            -15.5581850868      -16.4489343095      -18.9935765135  SOLV      228             0.0000000000
       799       240  TIP3      OH2           -23.3701217888      -21.1309678126      -16.1416925249  SOLV      229             0.0000000000
       800       240  TIP3      H1            -22.8764409587      -21.0182226366      -15.2999913444  SOLV      229             0.0000000000
       801       240  TIP3      H2            -23.7066033210      -22.0282564662      -16.0122568017  SOLV      229             0.0000000000
       802       241  TIP3      OH2           -16.1338161973      -19.7346228308      -16.1620210580  SOLV      230             0.0000000000
       803       241  TIP3      H1            -16.8241394783      -20.4162606247      -16.3154771719  SOLV      230             0.0000000000
       804       241  TIP3      H2            -15.3200070353      -20.2416141484      -16.3575433113  SOLV      230             0.0000000000
       805       242  TIP3      OH2           -13.6178842146      -14.6524936323      -20.2528278899  SOLV      231             0.0000000000
       806       242  TIP3      H1            -14.5743858976      -14.6838182460      -20.0706398037  SOLV      231             0.0000000000
       807       242  TIP3      H2            -13.2979403714      -14.1837091753      -19.4490796231  SOLV      231             0.0000000000
       808       243  TIP3      OH2            -7.2857903932      -15.3915718152      -20.3105603666  SOLV      232             0.0000000000
       809       243  TIP3      H1             -8.2638251714      -15.4417509574      -20.3914986970  SOLV      232             0.0000000000
       810       243  TIP3      H2             -7.0276688222      -15.6879415014      -21.2129277976  SOLV      232             0.0000000000
       811       244  TIP3      OH2           -12.6584020166      -15.7722825075      -31.8362676221  SOLV      233             0.0000000000
       812       244  TIP3      H1            -12.8590746715      -16.5875220378      -31.3531487969  SOLV      233             0.0000000000
       813       244  TIP3      H2            -12.3477468125      -16.1088860443      -32.6996510040  SOLV      233             0.0000000000
       814       245  TIP3      OH2           -12.5080930229      -19.4092706524      -23.7752320629  SOLV      234             0.0000000000
       815       245  TIP3      H1            -13.4404184726      -19.6656005001      -23.6379515627  SOLV      234             0.0000000000
       816       245  TIP3      H2            -12.1459384472      -20.2196149902      -24.1867262311  SOLV      234             0.0000000000
       817       246  TIP3      OH2           -18.5322153383      -13.9496272050      -21.3183047159  SOLV      235             0.0000000000
       818       246  TIP3      H1            -18.2004684865      -13.0589935232      -21.4917340548  SOLV      235             0.0000000000
       819       246  TIP3      H2            -17.7702840770      -14.3484587290      -20.8563893625  SOLV      235             0.0000000000
       820       247  TIP3      OH2           -14.6682258141      -17.4308134512      -21.8234457341  SOLV      236             0.0000000000
       821       247  TIP3      H1            -14.8111169583      -17.4415166541      -20.8482418630  SOLV      236             0.0000000000
       822       247  TIP3      H2            -13.8350225284      -17.9146252916      -21.8929268018  SOLV      236             0.0000000000
       823       248  TIP3      OH2           -12.1584951511      -12.1674122285      -21.3654882135  SOLV      237             0.0000000000
       824       248  TIP3      H1            -12.9450015385      -12.7468618765      -21.3407252432  SOLV      237             0.0000000000
       825       248  TIP3      H2            -12.3879812541      -11.5303194264      -22.0709391234  SOLV      237             0.0000000000
       826       249  TIP3      OH2           -11.4985023121      -13.4741583139      -35.0009755391  SOLV      238             0.0000000000
       827       249  TIP3      H1            -10.9405336329      -12.6926459669      -35.1950274868  SOLV      238             0.0000000000
       828       249  TIP3      H2            -12.3048039495      -13.0248929865      -34.6752358967  SOLV      238             0.0000000000
       829       250  TIP3      OH2           -21.0728882985      -25.6094599161      -15.9904304922  SOLV      239             0.0000000000
       830       250  TIP3      H1            -22.0192951747      -25.6882239952      -15.8220497324  SOLV      239             0.0000000000
       831       250  TIP3      H2            -20.7820221979      -26.5309327378      -15.9648476117  SOLV      239             0.0000000000
       832       251  TIP3      OH2           -13.1690357794      -18.8143335215      -30.5279025883  SOLV      240             0.0000000000
       833       251  TIP3      H1            -13.2819442431      -19.6356593538      -30.0119082030  SOLV      240             0.0000000000
       834       251  TIP3      H2            -12.2385130698      -18.9402243721      -30.8241584686  SOLV      240             0.0000000000
       835       252  TIP3      OH2           -24.2271996304      -15.0442701982      -19.6873091764  SOLV      241             0.0000000000
       836       252  TIP3      H1            -23.9669095014      -15.9052701817      -19.3311435505  SOLV      241             0.0000000000
       837       252  TIP3      H2            -23.5074435565      -14.4680396338      -19.3975646084  SOLV      241             0.0000000000
       838       253  TIP3      OH2           -12.7515708078      -25.4684118275      -19.3660706249  SOLV      242             0.0000000000
       839       253  TIP3      H1            -12.0814449426      -25.0173694735      -18.8288294099  SOLV      242             0.0000000000
       840       253  TIP3      H2            -12.9787242405      -26.2283458370      -18.7840326989  SOLV      242             0.0000000000
       841       254  TIP3      OH2           -14.4574126481      -22.8586122332      -18.5707821297  SOLV      243             0.0000000000
       842       254  TIP3      H1            -14.3143804243      -22.2863673560      -17.7807836880  SOLV      243             0.0000000000
       843       254  TIP3      H2            -13.9555300773      -23.6475346412      -18.3229500104  SOLV      243             0.0000000000
       844       255  TIP3      OH2            -8.1687985808      -23.9354104769      -18.7576206882  SOLV      244             0.0000000000
       845       255  TIP3      H1             -9.1444942091      -23.9154061860      -18.6439143792  SOLV      244             0.0000000000
       846       255  TIP3      H2             -8.1125324265      -24.2947629771      -19.6521111842  SOLV      244             0.0000000000
       847       256  TIP3      OH2           -11.5407093475      -21.8323235763      -24.8353212067  SOLV      245             0.0000000000
       848       256  TIP3      H1            -12.2921197158      -22.3667180331      -24.5229691808  SOLV      245             0.0000000000
       849       256  TIP3      H2            -10.7858099583      -22.3016151894      -24.4181715109  SOLV      245             0.0000000000
       850       257  TIP3      OH2           -11.9382157169      -12.3539481267      -25.4298281906  SOLV      246             0.0000000000
       851       257  TIP3      H1            -12.3419680666      -11.8601426450      -26.1781103720  SOLV      246             0.0000000000
       852       257  TIP3      H2            -10.9873416799      -12.1699558451      -25.6124986938  SOLV      246             0.0000000000
       853       258  TIP3      OH2           -24.1319223149      -11.8961825559      -15.6411063271  SOLV      247             0.0000000000
       854       258  TIP3      H1            -23.2656724118      -11.7810307867      -15.1761036453  SOLV      247             0.0000000000
       855       258  TIP3      H2            -24.4694847410      -12.6642283433      -15.1700941581  SOLV      247             0.0000000000
       856       259  TIP3      OH2           -19.5271731609      -12.3947259556      -15.2385675144  SOLV      248             0.0000000000
       857       259  TIP3      H1            -18.6013369092      -12.5317597415      -14.9986103747  SOLV      248             0.0000000000
       858       259  TIP3      H2            -19.6495956691      -13.0610529586      -15.9412664518  SOLV      248             0.0000000000
       859       260  TIP3      OH2           -12.9965234389      -13.4245348165      -17.8982870042  SOLV      249             0.0000000000
       860       260  TIP3      H1            -13.1038307450      -14.0749901423      -17.1661623388  SOLV      249             0.0000000000
       861       260  TIP3      H2            -12.2638074355      -12.8699432510      -17.5646255772  SOLV      249             0.0000000000
       862       261  TIP3      OH2           -16.8848547295      -17.0974935322      -15.8501474974  SOLV      250             0.0000000000
       863       261  TIP3      H1            -17.2610547473      -16.9180395782      -16.7329406700  SOLV      250             0.0000000000
       864       261  TIP3      H2            -16.5315405572      -18.0105984341      -15.9636327776  SOLV      250             0.0000000000
       865       262  TIP3      OH2           -11.9699247218      -17.0309006929      -19.8326427234  SOLV      251             0.0000000000
       866       262  TIP3      H1            -11.1875936330      -16.6118707942      -20.2429086423  SOLV      251             0.0000000000
       867       262  TIP3      H2            -12.6421334967      -16.3385093152      -19.9754604985  SOLV      251             0.0000000000
       868       263  TIP3      OH2           -21.4557288799      -20.7963754200      -14.0930072476  SOLV      252             0.0000000000
       869       263  TIP3      H1            -20.6395860599      -21.3375009685      -14.0735157591  SOLV      252             0.0000000000
       870       263  TIP3      H2            -21.4845701232      -20.4671699683      -13.1690645605  SOLV      252             0.0000000000
       871       264  TIP3      OH2           -18.0024677773      -21.5371616196      -17.0958805628  SOLV      253             0.0000000000
       872       264  TIP3      H1            -18.9543251542      -21.3408081781      -17.2018576915  SOLV      253             0.0000000000
       873       264  TIP3      H2            -17.6541007399      -21.3688244637      -17.9961949394  SOLV      253             0.0000000000
       874       265  TIP3      OH2           -13.2074986591      -17.7612716910      -15.9157066563  SOLV      254             0.0000000000
       875       265  TIP3      H1            -12.4044558758      -18.1185551931      -16.3103975000  SOLV      254             0.0000000000
       876       265  TIP3      H2            -13.3050228371      -18.3423288034      -15.1339328300  SOLV      254             0.0000000000
       877       266  TIP3      OH2           -17.0846156238      -23.7574235928      -15.8208252526  SOLV      255             0.0000000000
       878       266  TIP3      H1            -17.1896379071      -24.5248047706      -16.4220308458  SOLV      255             0.0000000000
       879       266  TIP3      H2            -17.4548669320      -23.0214843480      -16.3553776560  SOLV      255             0.0000000000
       880       267  TIP3      OH2           -17.1822946638      -25.7852434393      -17.7012175579  SOLV      256             0.0000000000
       881       267  TIP3      H1            -16.8264710916      -25.4207905970      -18.5154745608  SOLV      256             0.0000000000
       882       267  TIP3      H2            -17.9979872958      -26.1885475420      -18.0356340089  SOLV      256             0.0000000000
       883       268  TIP3      OH2           -16.8352326418      -20.8701283807      -19.4997974437  SOLV      257             0.0000000000
       884       268  TIP3      H1            -15.9394049582      -20.5457727812      -19.6702738088  SOLV      257             0.0000000000
       885       268  TIP3      H2            -17.3784119298      -20.0782607959      -19.6994900068  SOLV      257             0.0000000000
       886       269  TIP3      OH2           -11.0931934975      -21.1327507475      -15.3875868860  SOLV      258             0.0000000000
       887       269  TIP3      H1            -10.5749129542      -21.9180549679      -15.1537720949  SOLV      258             0.0000000000
       888       269  TIP3      H2            -10.4095150081      -20.5156486048      -15.6824682190  SOLV      258             0.0000000000
       889       270  TIP3      OH2           -10.6397598867      -18.5408300148      -18.0102538996  SOLV      259             0.0000000000
       890       270  TIP3      H1            -11.2313237886      -17.9796171780      -18.5645002207  SOLV      259             0.0000000000
       891       270  TIP3      H2             -9.7652534053      -18.2914378323      -18.3868313895  SOLV      259             0.0000000000
       892       271  TIP3      OH2           -19.1316929412      -22.6485734420      -14.1263972950  SOLV      260             0.0000000000
       893       271  TIP3      H1            -19.3653762578      -23.4590638338      -13.6205024332  SOLV      260             0.0000000000
       894       271  TIP3      H2            -18.3387201172      -22.9674401957      -14.5931783083  SOLV      260             0.0000000000
       895       272  TIP3      OH2           -16.4475488092      -28.6351480036      -17.0974443155  SOLV      261             0.0000000000
       896       272  TIP3      H1            -17.0722869507      -28.0181074252      -16.7098143569  SOLV      261             0.0000000000
       897       272  TIP3      H2            -16.8427948026      -29.5209302608      -16.8894431411  SOLV      261             0.0000000000
       898       273  TIP3      OH2           -14.4914577402      -23.4818206624      -14.9826094402  SOLV      262             0.0000000000
       899       273  TIP3      H1            -14.6599137355      -23.4387613089      -14.0233854628  SOLV      262             0.0000000000
       900       273  TIP3      H2            -15.4105680979      -23.6643679482      -15.2842840713  SOLV      262             0.0000000000
       901       274  TIP3      OH2           -12.2381672520      -24.0181002212      -16.5082126630  SOLV      263             0.0000000000
       902       274  TIP3      H1            -12.9729360991      -23.9044480110      -15.8608839436  SOLV      263             0.0000000000
       903       274  TIP3      H2            -11.4886172775      -24.2377371034      -15.9209412390  SOLV      263             0.0000000000
       904       275  TIP3      OH2            -9.8048533144      -24.4478143274      -15.0172889822  SOLV      264             0.0000000000
       905       275  TIP3      H1             -9.7207603168      -25.4060817074      -14.8336208642  SOLV      264             0.0000000000
       906       275  TIP3      H2             -9.9085343743      -24.0721012938      -14.1138901422  SOLV      264             0.0000000000
       907       276  TIP3      OH2           -19.8355171684      -25.0064971977      -13.0124944539  SOLV      265             0.0000000000
       908       276  TIP3      H1            -19.6817812399      -25.8596089176      -13.4630857313  SOLV      265             0.0000000000
       909       276  TIP3      H2            -19.7056151117      -25.3509528390      -12.1158549391  SOLV      265             0.0000000000
       910       277  TIP3      OH2           -14.6093733894      -28.2735038323      -14.8599529206  SOLV      266             0.0000000000
       911       277  TIP3      H1            -13.9515649591      -28.9933787005      -14.8129387956  SOLV      266             0.0000000000
       912       277  TIP3      H2            -15.3572079400      -28.7357407935      -15.2759698139  SOLV      266             0.0000000000
       913       278  TIP3      OH2           -14.1772949514      -26.1800455523      -13.0094527469  SOLV      267             0.0000000000
       914       278  TIP3      H1            -14.4016533252      -26.8217666547      -13.7133381037  SOLV      267             0.0000000000
       915       278  TIP3      H2            -14.9691250799      -25.5970444614      -13.0033767152  SOLV      267             0.0000000000
       916       279  TIP3      OH2            -9.4088244164      -11.4536162780      -25.8116220142  SOLV      268             0.0000000000
       917       279  TIP3      H1             -9.1405534967      -11.1376649592      -24.9293350159  SOLV      268             0.0000000000
       918       279  TIP3      H2             -8.7178818062      -11.0832366490      -26.3826107722  SOLV      268             0.0000000000
       919       280  TIP3      OH2            -9.1544992456      -11.2873241358      -22.9918837665  SOLV      269             0.0000000000
       920       280  TIP3      H1             -9.5662700429      -12.1774862831      -23.0153586690  SOLV      269             0.0000000000
       921       280  TIP3      H2             -8.3867491049      -11.4769969745      -22.4299826574  SOLV      269             0.0000000000
       922       281  TIP3      OH2            -8.6657911004      -14.5159872522      -17.2620182670  SOLV      270             0.0000000000
       923       281  TIP3      H1             -9.3810314022      -14.3974462229      -16.6032096089  SOLV      270             0.0000000000
       924       281  TIP3      H2             -8.2332388124      -13.6371215063      -17.2357538281  SOLV      270             0.0000000000
       925       282  TIP3      OH2           -10.5566199527      -19.2587678231      -31.0491915787  SOLV      271             0.0000000000
       926       282  TIP3      H1             -9.8518736831      -18.7348663099      -31.4764415904  SOLV      271             0.0000000000
       927       282  TIP3      H2            -10.0319118054      -19.8193222114      -30.4453697186  SOLV      271             0.0000000000
       928       283  TIP3      OH2            -9.2033995544      -20.7963452652      -29.1105804496  SOLV      272             0.0000000000
       929       283  TIP3      H1             -9.9072964634      -21.1077273508      -28.5091670077  SOLV      272             0.0000000000
       930       283  TIP3      H2             -8.5750460518      -20.3630426934      -28.4990106138  SOLV      272             0.0000000000
       931       284  TIP3      OH2            -8.6503203199      -16.7488872404      -24.7503693690  SOLV      273             0.0000000000
       932       284  TIP3      H1             -8.1293109903      -17.4398037337      -25.2056274773  SOLV      273             0.0000000000
       933       284  TIP3      H2             -8.6457662078      -16.0205927574      -25.4039077091  SOLV      273             0.0000000000
       934       285  TIP3      OH2           -10.3861315376      -13.7873615158      -22.7998411921  SOLV      274             0.0000000000
       935       285  TIP3      H1            -11.0891158490      -13.3579088956      -22.2741849647  SOLV      274             0.0000000000
       936       285  TIP3      H2            -10.8958732449      -14.2303422196      -23.5108596501  SOLV      274             0.0000000000
       937       286  TIP3      OH2           -11.1043701863      -22.1539383954      -27.5378959906  SOLV      275             0.0000000000
       938       286  TIP3      H1            -10.7638782395      -23.0527345721      -27.4610335970  SOLV      275             0.0000000000
       939       286  TIP3      H2            -11.2833021878      -21.9294693571      -26.5981342625  SOLV      275             0.0000000000
       940       287  TIP3      OH2            -8.1726121767      -17.8514718908      -19.0238708585  SOLV      276             0.0000000000
       941       287  TIP3      H1             -7.4695827773      -18.5273299885      -19.1458709151  SOLV      276             0.0000000000
       942       287  TIP3      H2             -7.9017978346      -17.1534203449      -19.6437178184  SOLV      276             0.0000000000
       943       288  TIP3      OH2            -6.3861674609      -19.8889883379      -18.9936612622  SOLV      277             0.0000000000
       944       288  TIP3      H1             -7.1272333272      -20.3625704316      -18.5560341330  SOLV      277             0.0000000000
       945       288  TIP3      H2             -5.6528101605      -20.5094765254      -18.7988200980  SOLV      277             0.0000000000
       946       289  TIP3      OH2            -9.5095562761      -23.2813757462      -23.6964202087  SOLV      278             0.0000000000
       947       289  TIP3      H1             -8.6378709209      -23.0390975779      -24.0907026468  SOLV      278             0.0000000000
       948       289  TIP3      H2             -9.3822127898      -22.9045366216      -22.8022550379  SOLV      278             0.0000000000
       949       290  TIP3      OH2            -8.8028693225      -21.8064225149      -21.4101736449  SOLV      279             0.0000000000
       950       290  TIP3      H1             -9.5610173709      -21.4766952941      -20.8909167832  SOLV      279             0.0000000000
       951       290  TIP3      H2             -8.4828737293      -20.9796391065      -21.8357715542  SOLV      279             0.0000000000
       952       291  TIP3      OH2           -22.4624360974      -24.2945134842      -13.3751462156  SOLV      280             0.0000000000
       953       291  TIP3      H1            -21.4961763972      -24.4371663241      -13.4548071268  SOLV      280             0.0000000000
       954       291  TIP3      H2            -22.7031282020      -25.1248188306      -12.9056757317  SOLV      280             0.0000000000
       955       292  TIP3      OH2            -4.1631942264      -25.7365196435      -15.9152534085  SOLV      281             0.0000000000
       956       292  TIP3      H1             -3.7494367853      -26.4530584880      -16.4172698558  SOLV      281             0.0000000000
       957       292  TIP3      H2             -4.6355908075      -25.2344266076      -16.6171675143  SOLV      281             0.0000000000
       958       293  TIP3      OH2            -5.6486642747      -24.5113710964      -17.7561845061  SOLV      282             0.0000000000
       959       293  TIP3      H1             -6.4438625650      -24.0179811362      -17.4600572973  SOLV      282             0.0000000000
       960       293  TIP3      H2             -6.0812351581      -25.1517032366      -18.3582508666  SOLV      282             0.0000000000
       961       294  TIP3      OH2           -13.6106800760      -12.7566099023      -29.2889859333  SOLV      283             0.0000000000
       962       294  TIP3      H1            -13.1341261088      -12.8941498750      -30.1355221669  SOLV      283             0.0000000000
       963       294  TIP3      H2            -12.9844145663      -12.1949723536      -28.8118128041  SOLV      283             0.0000000000
       964       295  TIP3      OH2           -23.4201641312      -14.9585919501      -14.7935700945  SOLV      284             0.0000000000
       965       295  TIP3      H1            -22.9992480378      -14.9256297762      -15.7053054683  SOLV      284             0.0000000000
       966       295  TIP3      H2            -22.5942630316      -14.8951102198      -14.2517639727  SOLV      284             0.0000000000
       967       296  TIP3      OH2           -20.8553075321      -14.3797826413      -19.9215088913  SOLV      285             0.0000000000
       968       296  TIP3      H1            -21.2864462874      -13.6086919130      -20.3559588666  SOLV      285             0.0000000000
       969       296  TIP3      H2            -19.9859735985      -14.3192382497      -20.3712651210  SOLV      285             0.0000000000
       970       297  TIP3      OH2           -16.3953936541      -11.9734291172      -18.6161577060  SOLV      286             0.0000000000
       971       297  TIP3      H1            -15.9956755517      -12.0067360769      -17.7163325737  SOLV      286             0.0000000000
       972       297  TIP3      H2            -15.7141746926      -11.4488415124      -19.0886484671  SOLV      286             0.0000000000
       973       298  TIP3      OH2           -14.5401399017      -10.4447895785      -19.9406425130  SOLV      287             0.0000000000
       974       298  TIP3      H1            -13.7997271224      -10.9702621903      -20.2719107332  SOLV      287             0.0000000000
       975       298  TIP3      H2            -14.0583439008       -9.8406374082      -19.3292859667  SOLV      287             0.0000000000
       976       299  TIP3      OH2            -6.6241890608      -26.8431786846      -19.0004936413  SOLV      288             0.0000000000
       977       299  TIP3      H1             -7.5239275927      -26.8788996990      -19.3699008013  SOLV      288             0.0000000000
       978       299  TIP3      H2             -6.3327835367      -27.7770300246      -19.1064365135  SOLV      288             0.0000000000
       979       300  TIP3      OH2           -23.9280988571      -11.7466139013      -19.5604904430  SOLV      289             0.0000000000
       980       300  TIP3      H1            -24.8444205469      -11.5934984411      -19.8786701563  SOLV      289             0.0000000000
       981       300  TIP3      H2            -23.8808919176      -11.0879902168      -18.8477651875  SOLV      289             0.0000000000
       982       301  TIP3      OH2           -21.6866398212      -12.0979978184      -21.1214113783  SOLV      290             0.0000000000
       983       301  TIP3      H1            -22.5375862136      -11.9424113509      -20.6478839438  SOLV      290             0.0000000000
       984       301  TIP3      H2            -21.9096784896      -11.7789455374      -22.0189529862  SOLV      290             0.0000000000
       985       302  TIP3      OH2           -17.1739185615      -10.8554669412      -23.9036847484  SOLV      291             0.0000000000
       986       302  TIP3      H1            -18.0799053229      -11.2480035760      -24.0550522934  SOLV      291             0.0000000000
       987       302  TIP3      H2            -17.2761543941      -10.5066343833      -22.9785688815  SOLV      291             0.0000000000
       988       303  TIP3      OH2           -14.7347900334      -12.3945071915      -22.6478580870  SOLV      292             0.0000000000
       989       303  TIP3      H1            -15.5708086130      -12.0354575790      -22.9701386530  SOLV      292             0.0000000000
       990       303  TIP3      H2            -14.1014509317      -11.7259636985      -22.9703782866  SOLV      292             0.0000000000
       991       304  TIP3      OH2           -12.8530123050      -10.5623314166      -23.5674400250  SOLV      293             0.0000000000
       992       304  TIP3      H1            -12.9014678219       -9.7202895732      -24.0713503937  SOLV      293             0.0000000000
       993       304  TIP3      H2            -12.4460616079      -11.1598330595      -24.2359576898  SOLV      293             0.0000000000
       994       305  TIP3      OH2           -24.7265088847      -13.5138134374      -21.9995933178  SOLV      294             0.0000000000
       995       305  TIP3      H1            -24.5570430090      -13.9747139748      -21.1555312888  SOLV      294             0.0000000000
       996       305  TIP3      H2            -24.2081941544      -14.0817629735      -22.6144552058  SOLV      294             0.0000000000
       997       306  TIP3      OH2           -23.0322762946      -15.0220089867      -23.5601470850  SOLV      295             0.0000000000
       998       306  TIP3      H1            -22.9157076928      -15.9267541186      -23.2099626907  SOLV      295             0.0000000000
       999       306  TIP3      H2            -22.1204706069      -14.7737314508      -23.7904851244  SOLV      295             0.0000000000
      1000       307  TIP3      OH2           -20.2488366123      -14.3465150723      -23.6282133124  SOLV      296             0.0000000000
      1001       307  TIP3      H1            -19.9782446058      -15.2737608635      -23.7498501192  SOLV      296             0.0000000000
      1002       307  TIP3      H2            -19.8249368455      -14.1619118269      -22.7707555576  SOLV      296             0.0000000000
      1003       308  TIP3      OH2            -9.3504366029      -28.5766286153      -23.4226849030  SOLV      297             0.0000000000
      1004       308  TIP3      H1             -8.7190120657      -28.1522184241      -24.0382392322  SOLV      297             0.0000000000
      1005       308  TIP3      H2            -10.0000070990      -28.8941500375      -24.0868776724  SOLV      297             0.0000000000
      1006       309  TIP3      OH2            -7.8746476357      -27.8140618519      -25.5965665311  SOLV      298             0.0000000000
      1007       309  TIP3      H1             -6.9314587133      -27.7883963696      -25.8256498138  SOLV      298             0.0000000000
      1008       309  TIP3      H2             -8.1042880019      -26.8941947491      -25.8253269194  SOLV      298             0.0000000000
      1009       310  TIP3      OH2           -12.1683271016      -13.1130471252      -31.5904641140  SOLV      299             0.0000000000
      1010       310  TIP3      H1            -12.2969588243      -14.0928061006      -31.6149687462  SOLV      299             0.0000000000
      1011       310  TIP3      H2            -12.5960059564      -12.8499999066      -32.4288654927  SOLV      299             0.0000000000
      1012       311  TIP3      OH2            -9.1482240854      -27.1511816225      -14.5933320908  SOLV      300             0.0000000000
      1013       311  TIP3      H1             -8.9911859656      -27.4286250373      -13.6626605964  SOLV      300             0.0000000000
      1014       311  TIP3      H2             -8.2509228175      -27.2169916525      -14.9761434650  SOLV      300             0.0000000000
      1015       312  TIP3      OH2            -9.8677524767      -11.6993140038      -19.7517652061  SOLV      301             0.0000000000
      1016       312  TIP3      H1            -10.6628566054      -11.9830227274      -20.2450633135  SOLV      301             0.0000000000
      1017       312  TIP3      H2            -10.0511987341      -10.7418795376      -19.6544144625  SOLV      301             0.0000000000
      1018       313  TIP3      OH2             2.8372751000      -17.9161007035      -32.1412712607  SOLV      302             0.0000000000
      1019       313  TIP3      H1              2.4914741341      -17.0272204173      -32.3535494369  SOLV      302             0.0000000000
      1020       313  TIP3      H2              2.0785611464      -18.4716334651      -32.3935365319  SOLV      302             0.0000000000
      1021       314  TIP3      OH2             2.7859168759      -17.9612448080      -28.1993043503  SOLV      303             0.0000000000
      1022       314  TIP3      H1              3.1694886349      -18.2001971406      -27.3345976066  SOLV      303             0.0000000000
      1023       314  TIP3      H2              2.4243516118      -18.8160760623      -28.4892379331  SOLV      303             0.0000000000
      1024       315  TIP3      OH2            -4.2566176265      -19.0434865054      -24.5806978402  SOLV      304             0.0000000000
      1025       315  TIP3      H1             -3.9498463232      -19.7360477489      -23.9658153656  SOLV      304             0.0000000000
      1026       315  TIP3      H2             -3.4412418423      -18.5393837879      -24.7150559265  SOLV      304             0.0000000000
      1027       316  TIP3      OH2             5.2578866803      -14.8784076722      -31.4459741500  SOLV      305             0.0000000000
      1028       316  TIP3      H1              5.0688915591      -15.5837027147      -30.8111745426  SOLV      305             0.0000000000
      1029       316  TIP3      H2              5.5631645194      -14.1576941426      -30.8661425674  SOLV      305             0.0000000000
      1030       317  TIP3      OH2            -4.4911543639      -14.9296076084      -27.4130636008  SOLV      306             0.0000000000
      1031       317  TIP3      H1             -4.5607423429      -15.9077413396      -27.4021867594  SOLV      306             0.0000000000
      1032       317  TIP3      H2             -3.5235796364      -14.8219000128      -27.4565101721  SOLV      306             0.0000000000
      1033       318  TIP3      OH2            -7.4331274226      -23.0200402955      -29.5174738891  SOLV      307             0.0000000000
      1034       318  TIP3      H1             -7.8206381277      -22.1254856234      -29.4765551771  SOLV      307             0.0000000000
      1035       318  TIP3      H2             -8.2084744098      -23.5280933680      -29.7772618138  SOLV      307             0.0000000000
      1036       319  TIP3      OH2            -6.8792604235      -20.0330702004      -27.7517743654  SOLV      308             0.0000000000
      1037       319  TIP3      H1             -6.3611430587      -20.8083711624      -27.4412422508  SOLV      308             0.0000000000
      1038       319  TIP3      H2             -6.2547630881      -19.6026614227      -28.3527367279  SOLV      308             0.0000000000
      1039       320  TIP3      OH2             1.7714037546      -10.3230846517      -31.2626376425  SOLV      309             0.0000000000
      1040       320  TIP3      H1              2.1701697576      -11.0618094281      -31.7637571529  SOLV      309             0.0000000000
      1041       320  TIP3      H2              1.6513667799      -10.7177490440      -30.3898133877  SOLV      309             0.0000000000
      1042       321  TIP3      OH2             0.7679418817      -15.7093935515      -27.7709557584  SOLV      310             0.0000000000
      1043       321  TIP3      H1              1.1969677848      -16.4947222834      -28.1548381374  SOLV      310             0.0000000000
      1044       321  TIP3      H2              1.5808246766      -15.2189607276      -27.5187741718  SOLV      310             0.0000000000
      1045       322  TIP3      OH2            10.9434319373      -22.5010239391      -27.7661848941  SOLV      311             0.0000000000
      1046       322  TIP3      H1             11.2536354091      -21.6805400479      -27.3322984968  SOLV      311             0.0000000000
      1047       322  TIP3      H2             11.1281933357      -22.3002955413      -28.7002115637  SOLV      311             0.0000000000
      1048       323  TIP3      OH2             4.9318175733      -20.7220744417      -27.4893058579  SOLV      312             0.0000000000
      1049       323  TIP3      H1              5.3921202716      -21.5568458598      -27.2812519165  SOLV      312             0.0000000000
      1050       323  TIP3      H2              4.5458824178      -20.9334947672      -28.3630696261  SOLV      312             0.0000000000
      1051       324  TIP3      OH2            -1.8005351040      -24.1686250714      -27.7513607139  SOLV      313             0.0000000000
      1052       324  TIP3      H1             -1.8269135997      -23.4267317688      -28.3894700936  SOLV      313             0.0000000000
      1053       324  TIP3      H2             -2.2208372078      -24.8673968936      -28.2931815972  SOLV      313             0.0000000000
      1054       325  TIP3      OH2             5.1907083716      -23.1327921803      -31.6440489964  SOLV      314             0.0000000000
      1055       325  TIP3      H1              5.7227117885      -23.5816392007      -30.9618741206  SOLV      314             0.0000000000
      1056       325  TIP3      H2              5.8731908345      -22.8990415984      -32.2982033701  SOLV      314             0.0000000000
      1057       326  TIP3      OH2            -5.3736503402      -22.0935054962      -26.7356548264  SOLV      315             0.0000000000
      1058       326  TIP3      H1             -4.5402326957      -22.2386317063      -26.2471948175  SOLV      315             0.0000000000
      1059       326  TIP3      H2             -5.1885279617      -22.6319165531      -27.5373565500  SOLV      315             0.0000000000
      1060       327  TIP3      OH2            -0.9584484659      -20.0888153722      -28.7224373141  SOLV      316             0.0000000000
      1061       327  TIP3      H1             -0.0094454209      -20.3274120823      -28.6388318291  SOLV      316             0.0000000000
      1062       327  TIP3      H2             -1.3420665319      -20.9358892567      -29.0418462118  SOLV      316             0.0000000000
      1063       328  TIP3      OH2            11.6848063261      -20.3990183257      -26.0936108605  SOLV      317             0.0000000000
      1064       328  TIP3      H1             10.8216582542      -19.9689242577      -26.2746875457  SOLV      317             0.0000000000
      1065       328  TIP3      H2             11.8770981265      -20.0491559337      -25.2082639361  SOLV      317             0.0000000000
      1066       329  TIP3      OH2            -1.7728082970      -24.2262116556      -23.4252758130  SOLV      318             0.0000000000
      1067       329  TIP3      H1             -2.3327805073      -23.8647482816      -24.1393469485  SOLV      318             0.0000000000
      1068       329  TIP3      H2             -2.3275731174      -24.0162178642      -22.6465160038  SOLV      318             0.0000000000
      1069       330  TIP3      OH2             1.7502210231      -15.6854904448      -33.4594274824  SOLV      319             0.0000000000
      1070       330  TIP3      H1              1.2516017984      -15.8768721649      -34.2661009833  SOLV      319             0.0000000000
      1071       330  TIP3      H2              1.2516808467      -14.9106941431      -33.1170925417  SOLV      319             0.0000000000
      1072       331  TIP3      OH2            -0.6826127521      -16.5103120648      -25.5719916344  SOLV      320             0.0000000000
      1073       331  TIP3      H1             -1.2595456396      -15.8029318376      -25.2081611030  SOLV      320             0.0000000000
      1074       331  TIP3      H2             -0.2405787972      -16.0465264101      -26.3150280535  SOLV      320             0.0000000000
      1075       332  TIP3      OH2             7.3934895937      -23.2164174964      -29.7366621122  SOLV      321             0.0000000000
      1076       332  TIP3      H1              6.8289815109      -23.3873647318      -28.9686175708  SOLV      321             0.0000000000
      1077       332  TIP3      H2              7.8023159981      -22.3637787820      -29.4974904965  SOLV      321             0.0000000000
      1078       333  TIP3      OH2            -3.0521326349      -23.1105719476      -25.5951713791  SOLV      322             0.0000000000
      1079       333  TIP3      H1             -2.4150783180      -22.3904903641      -25.3807210563  SOLV      322             0.0000000000
      1080       333  TIP3      H2             -2.5854234256      -23.5225716296      -26.3635992029  SOLV      322             0.0000000000
      1081       334  TIP3      OH2            -2.3739256348      -14.5258503277      -24.5530939163  SOLV      323             0.0000000000
      1082       334  TIP3      H1             -2.6208262097      -13.6429123211      -24.8982961646  SOLV      323             0.0000000000
      1083       334  TIP3      H2             -3.1723022731      -14.7107629501      -24.0123875281  SOLV      323             0.0000000000
      1084       335  TIP3      OH2            -8.4621980242      -17.6618010894      -32.0834966395  SOLV      324             0.0000000000
      1085       335  TIP3      H1             -8.7938544584      -17.3182146716      -32.9408257858  SOLV      324             0.0000000000
      1086       335  TIP3      H2             -8.1095518807      -16.8396603082      -31.6946970416  SOLV      324             0.0000000000
      1087       336  TIP3      OH2             5.9093085881      -12.4817662201      -29.8235387447  SOLV      325             0.0000000000
      1088       336  TIP3      H1              5.0225574457      -12.5775748926      -29.4039679727  SOLV      325             0.0000000000
      1089       336  TIP3      H2              5.8195923696      -11.6032396023      -30.2441756735  SOLV      325             0.0000000000
      1090       337  TIP3      OH2             8.8308237855      -23.5465771757      -26.1271055658  SOLV      326             0.0000000000
      1091       337  TIP3      H1              7.9310111965      -23.3399764472      -26.4582313969  SOLV      326             0.0000000000
      1092       337  TIP3      H2              9.3965441092      -23.1936328354      -26.8431831231  SOLV      326             0.0000000000
      1093       338  TIP3      OH2             1.6518864074      -27.2995970425      -26.0882405230  SOLV      327             0.0000000000
      1094       338  TIP3      H1              1.4254589871      -28.2398457253      -25.9689017934  SOLV      327             0.0000000000
      1095       338  TIP3      H2              0.8849624869      -26.8603621498      -25.6703496279  SOLV      327             0.0000000000
      1096       339  TIP3      OH2             2.8952561357      -12.1136053763      -33.0929400909  SOLV      328             0.0000000000
      1097       339  TIP3      H1              3.4252440017      -12.9251402503      -33.2481877969  SOLV      328             0.0000000000
      1098       339  TIP3      H2              3.5310076314      -11.4397152655      -33.4314308409  SOLV      328             0.0000000000
      1099       340  TIP3      OH2             4.4250325404      -14.2541582959      -33.9941279834  SOLV      329             0.0000000000
      1100       340  TIP3      H1              3.7985117345      -14.9790904021      -34.1384001890  SOLV      329             0.0000000000
      1101       340  TIP3      H2              4.8229680084      -14.5233571143      -33.1338405487  SOLV      329             0.0000000000
      1102       341  TIP3      OH2             8.1649325952      -13.4137635787      -26.3401155007  SOLV      330             0.0000000000
      1103       341  TIP3      H1              8.0333429151      -14.1808879375      -26.9380365778  SOLV      330             0.0000000000
      1104       341  TIP3      H2              7.9853592370      -12.6587677074      -26.9391655902  SOLV      330             0.0000000000
      1105       342  TIP3      OH2             1.0951374212      -19.4314657531      -33.7123972233  SOLV      331             0.0000000000
      1106       342  TIP3      H1              0.3051634831      -18.9054477499      -33.9450986197  SOLV      331             0.0000000000
      1107       342  TIP3      H2              1.5420843281      -19.5258875444      -34.5741993483  SOLV      331             0.0000000000
      1108       343  TIP3      OH2             0.6384559362      -21.7304615044      -36.5153111087  SOLV      332             0.0000000000
      1109       343  TIP3      H1              1.3347337201      -21.1273728014      -36.2003973831  SOLV      332             0.0000000000
      1110       343  TIP3      H2              1.1344351324      -22.5417623336      -36.6770836105  SOLV      332             0.0000000000
      1111       344  TIP3      OH2            10.1214852108      -16.9918370460      -27.8711999209  SOLV      333             0.0000000000
      1112       344  TIP3      H1              9.2732326313      -16.4981392288      -27.8296543837  SOLV      333             0.0000000000
      1113       344  TIP3      H2             10.4226324513      -16.7387682022      -28.7698776654  SOLV      333             0.0000000000
      1114       345  TIP3      OH2             4.6124286871      -18.6330715538      -34.0771839260  SOLV      334             0.0000000000
      1115       345  TIP3      H1              4.0571140042      -18.4019162437      -33.2938958511  SOLV      334             0.0000000000
      1116       345  TIP3      H2              5.4424766737      -18.8966673072      -33.6264206826  SOLV      334             0.0000000000
      1117       346  TIP3      OH2             6.9142008159      -18.2638386655      -24.8787793813  SOLV      335             0.0000000000
      1118       346  TIP3      H1              6.8844138125      -17.4261603426      -24.3793602967  SOLV      335             0.0000000000
      1119       346  TIP3      H2              6.0498812191      -18.2311031195      -25.3368912422  SOLV      335             0.0000000000
      1120       347  TIP3      OH2            -3.0752690816      -18.6700975321      -29.8683401366  SOLV      336             0.0000000000
      1121       347  TIP3      H1             -3.4797828784      -19.2615487367      -30.5383808723  SOLV      336             0.0000000000
      1122       347  TIP3      H2             -2.3192475460      -19.2069829465      -29.5486288724  SOLV      336             0.0000000000
      1123       348  TIP3      OH2            -1.7954160140      -14.5406086116      -28.4038142536  SOLV      337             0.0000000000
      1124       348  TIP3      H1             -1.9793320620      -14.8687766521      -29.2973086518  SOLV      337             0.0000000000
      1125       348  TIP3      H2             -0.9090090750      -14.9186876887      -28.2250275362  SOLV      337             0.0000000000
      1126       349  TIP3      OH2            -1.8033191811      -18.9202489009      -26.3370431204  SOLV      338             0.0000000000
      1127       349  TIP3      H1             -1.4327417127      -19.2170175146      -27.1979974045  SOLV      338             0.0000000000
      1128       349  TIP3      H2             -1.3189601891      -18.0816407856      -26.1764001108  SOLV      338             0.0000000000
      1129       350  TIP3      OH2             3.5281702755      -12.5648330092      -28.5659346399  SOLV      339             0.0000000000
      1130       350  TIP3      H1              3.3968575915      -11.7521646569      -28.0436627380  SOLV      339             0.0000000000
      1131       350  TIP3      H2              3.3506202926      -13.2765694978      -27.9191873234  SOLV      339             0.0000000000
      1132       351  TIP3      OH2            -0.3294459639      -13.3869564864      -23.0795118353  SOLV      340             0.0000000000
      1133       351  TIP3      H1             -0.9518849517      -12.7790297587      -22.6231375965  SOLV      340             0.0000000000
      1134       351  TIP3      H2             -0.9637142899      -13.9177506287      -23.6035553433  SOLV      340             0.0000000000
      1135       352  TIP3      OH2             2.8703590987      -19.9790821028      -35.7749606370  SOLV      341             0.0000000000
      1136       352  TIP3      H1              3.4860175313      -19.3854860968      -35.2907241263  SOLV      341             0.0000000000
      1137       352  TIP3      H2              3.1610947324      -19.8297286664      -36.7060406048  SOLV      341             0.0000000000
      1138       353  TIP3      OH2            -2.7742284861      -17.8725205154      -21.9804728681  SOLV      342             0.0000000000
      1139       353  TIP3      H1             -2.7295729667      -16.9623452708      -21.6209832837  SOLV      342             0.0000000000
      1140       353  TIP3      H2             -3.7320342997      -18.0491146932      -21.8827451356  SOLV      342             0.0000000000
      1141       354  TIP3      OH2             0.4281524722      -13.3016742882      -33.0201886326  SOLV      343             0.0000000000
      1142       354  TIP3      H1              1.2568394346      -12.7854702811      -32.9611901589  SOLV      343             0.0000000000
      1143       354  TIP3      H2             -0.1703123867      -12.6848492241      -33.4599232524  SOLV      343             0.0000000000
      1144       355  TIP3      OH2            -2.4093433090      -11.7574795927      -22.2133275812  SOLV      344             0.0000000000
      1145       355  TIP3      H1             -2.7727143548      -11.6781524673      -23.1146570287  SOLV      344             0.0000000000
      1146       355  TIP3      H2             -3.2133727597      -11.9630335040      -21.6843593665  SOLV      344             0.0000000000
      1147       356  TIP3      OH2            -4.4121003135      -20.2016263310      -31.8617978177  SOLV      345             0.0000000000
      1148       356  TIP3      H1             -5.0909906674      -19.7111501681      -32.3744752474  SOLV      345             0.0000000000
      1149       356  TIP3      H2             -4.8151767445      -21.0745582487      -31.7980530216  SOLV      345             0.0000000000
      1150       357  TIP3      OH2            -6.6439455247      -16.3806946763      -22.7409936875  SOLV      346             0.0000000000
      1151       357  TIP3      H1             -7.3045540341      -16.5888065254      -23.4317286092  SOLV      346             0.0000000000
      1152       357  TIP3      H2             -6.2428058317      -17.2520832558      -22.5473304565  SOLV      346             0.0000000000
      1153       358  TIP3      OH2            -8.0551073349      -14.4595738338      -26.4314507222  SOLV      347             0.0000000000
      1154       358  TIP3      H1             -7.0972855091      -14.5364955121      -26.5427572702  SOLV      347             0.0000000000
      1155       358  TIP3      H2             -8.1132467417      -13.6868633594      -25.8477954626  SOLV      347             0.0000000000
      1156       359  TIP3      OH2            10.5596252288       -9.9171509517      -25.8274236280  SOLV      348             0.0000000000
      1157       359  TIP3      H1             10.5432029879      -10.8753413314      -25.6496316005  SOLV      348             0.0000000000
      1158       359  TIP3      H2              9.7304676773       -9.6412490665      -25.3765856398  SOLV      348             0.0000000000
      1159       360  TIP3      OH2             1.6074841248      -12.0986433447      -24.5162362058  SOLV      349             0.0000000000
      1160       360  TIP3      H1              1.5714491460      -11.1711630674      -24.1945362722  SOLV      349             0.0000000000
      1161       360  TIP3      H2              0.8996767002      -12.5090642072      -23.9705537055  SOLV      349             0.0000000000
      1162       361  TIP3      OH2            -0.7343569545      -10.8149728583      -35.0270565153  SOLV      350             0.0000000000
      1163       361  TIP3      H1             -1.2435914368      -10.9427855548      -35.8464876928  SOLV      350             0.0000000000
      1164       361  TIP3      H2             -1.0843334504       -9.9665944103      -34.6931863509  SOLV      350             0.0000000000
      1165       362  TIP3      OH2            -6.3783460851      -12.3386191930      -31.1311444234  SOLV      351             0.0000000000
      1166       362  TIP3      H1             -5.9178873644      -12.4140092117      -30.2660252351  SOLV      351             0.0000000000
      1167       362  TIP3      H2             -6.8290509911      -13.2018322442      -31.1789467120  SOLV      351             0.0000000000
      1168       363  TIP3      OH2             1.0840495139      -11.6010836698      -38.5378616907  SOLV      352             0.0000000000
      1169       363  TIP3      H1              1.6652945687      -12.2566672595      -38.9727101083  SOLV      352             0.0000000000
      1170       363  TIP3      H2              1.4811324677      -11.5503177846      -37.6451793678  SOLV      352             0.0000000000
      1171       364  TIP3      OH2             1.7915257807      -11.3047056163      -35.8478336084  SOLV      353             0.0000000000
      1172       364  TIP3      H1              0.8826075139      -11.2002415154      -35.4834096984  SOLV      353             0.0000000000
      1173       364  TIP3      H2              2.2667407746      -11.6288229590      -35.0650263811  SOLV      353             0.0000000000
      1174       365  TIP3      OH2             9.4313732576      -18.6691358101      -23.0974807783  SOLV      354             0.0000000000
      1175       365  TIP3      H1              8.5969963172      -18.5673950768      -23.5790543437  SOLV      354             0.0000000000
      1176       365  TIP3      H2              9.6013061841      -19.6271073534      -23.2034584167  SOLV      354             0.0000000000
      1177       366  TIP3      OH2            -4.5880524630      -14.5642249388      -22.9390637268  SOLV      355             0.0000000000
      1178       366  TIP3      H1             -4.1060514366      -14.6948954038      -22.0990117526  SOLV      355             0.0000000000
      1179       366  TIP3      H2             -5.3398588253      -15.1836763747      -22.8377588337  SOLV      355             0.0000000000
      1180       367  TIP3      OH2            -0.6753120891      -26.3962129352      -24.8947237857  SOLV      356             0.0000000000
      1181       367  TIP3      H1             -1.5686766635      -26.6206685611      -25.2243043696  SOLV      356             0.0000000000
      1182       367  TIP3      H2             -0.8526835802      -25.5108811229      -24.5270702847  SOLV      356             0.0000000000
      1183       368  TIP3      OH2             4.7907059916      -25.1420811305      -23.0708228238  SOLV      357             0.0000000000
      1184       368  TIP3      H1              5.4805172886      -25.4684442912      -22.4598680303  SOLV      357             0.0000000000
      1185       368  TIP3      H2              3.9600066925      -25.3793176335      -22.6155322529  SOLV      357             0.0000000000
      1186       369  TIP3      OH2             7.1279910744      -20.8811352449      -23.8819774999  SOLV      358             0.0000000000
      1187       369  TIP3      H1              6.5864306096      -20.9059921424      -23.0602861633  SOLV      358             0.0000000000
      1188       369  TIP3      H2              6.8910942835      -20.0153388951      -24.2656750382  SOLV      358             0.0000000000
      1189       370  TIP3      OH2             3.6957900723      -19.5327577514      -38.3059671197  SOLV      359             0.0000000000
      1190       370  TIP3      H1              3.2785431167      -19.4487339643      -39.1700875207  SOLV      359             0.0000000000
      1191       370  TIP3      H2              4.5406122309      -19.0601725723      -38.4291615880  SOLV      359             0.0000000000
      1192       371  TIP3      OH2             0.7444998307      -25.5485085839      -35.3500135489  SOLV      360             0.0000000000
      1193       371  TIP3      H1              0.4228144132      -25.7349523455      -34.4413627193  SOLV      360             0.0000000000
      1194       371  TIP3      H2              0.6596832948      -26.4065699677      -35.7758612477  SOLV      360             0.0000000000
      1195       372  TIP3      OH2            -1.2984124193      -21.1313380532      -24.8370670574  SOLV      361             0.0000000000
      1196       372  TIP3      H1             -1.7904673802      -20.9116871231      -24.0201856368  SOLV      361             0.0000000000
      1197       372  TIP3      H2             -1.4521355003      -20.3224649148      -25.3739903054  SOLV      361             0.0000000000
      1198       373  TIP3      OH2            -2.4264577779      -22.2370550577      -29.5760022034  SOLV      362             0.0000000000
      1199       373  TIP3      H1             -3.3487228131      -22.5233732474      -29.4226164691  SOLV      362             0.0000000000
      1200       373  TIP3      H2             -2.2447640028      -22.6864937902      -30.4342660638  SOLV      362             0.0000000000
      1201       374  TIP3      OH2             2.4757054778      -21.4344480294      -32.3535835282  SOLV      363             0.0000000000
      1202       374  TIP3      H1              1.9789763077      -20.7501184760      -32.8475207501  SOLV      363             0.0000000000
      1203       374  TIP3      H2              3.0476910904      -21.8198135633      -33.0468782246  SOLV      363             0.0000000000
      1204       375  TIP3      OH2             4.2336154374      -18.7152287556      -21.5840917848  SOLV      364             0.0000000000
      1205       375  TIP3      H1              4.0329900014      -19.4528029622      -20.9704582582  SOLV      364             0.0000000000
      1206       375  TIP3      H2              5.1715537445      -18.5569626273      -21.3692628002  SOLV      364             0.0000000000
      1207       376  TIP3      OH2             4.0302089226      -21.1647472917      -30.0557097052  SOLV      365             0.0000000000
      1208       376  TIP3      H1              3.3835891924      -20.9814910565      -30.7685159429  SOLV      365             0.0000000000
      1209       376  TIP3      H2              4.3850300298      -22.0043788434      -30.4246038069  SOLV      365             0.0000000000
      1210       377  TIP3      OH2            -3.0902296523      -20.8594836675      -22.7512742616  SOLV      366             0.0000000000
      1211       377  TIP3      H1             -2.7796490129      -20.1981384357      -22.1135394189  SOLV      366             0.0000000000
      1212       377  TIP3      H2             -3.1747486887      -21.6622942950      -22.2032113868  SOLV      366             0.0000000000
      1213       378  TIP3      OH2            -6.9947554661      -25.6729382924      -27.0015252434  SOLV      367             0.0000000000
      1214       378  TIP3      H1             -6.4181261087      -25.3005347685      -26.3006811653  SOLV      367             0.0000000000
      1215       378  TIP3      H2             -6.5585833161      -25.3446046376      -27.7966873530  SOLV      367             0.0000000000
      1216       379  TIP3      OH2             4.1573500095      -18.7503464504      -25.8447643142  SOLV      368             0.0000000000
      1217       379  TIP3      H1              4.4874103724      -19.4624393744      -26.4439693040  SOLV      368             0.0000000000
      1218       379  TIP3      H2              3.8250259031      -19.2987476979      -25.1020536780  SOLV      368             0.0000000000
      1219       380  TIP3      OH2             0.8692676768      -23.9596993505      -29.1017209782  SOLV      369             0.0000000000
      1220       380  TIP3      H1              0.2844210341      -24.1332423969      -28.3500306610  SOLV      369             0.0000000000
      1221       380  TIP3      H2              1.7278083874      -24.3333284050      -28.8125289464  SOLV      369             0.0000000000
      1222       381  TIP3      OH2            -4.8024328558      -23.5329301902      -28.9888673365  SOLV      370             0.0000000000
      1223       381  TIP3      H1             -5.7094749520      -23.4609761344      -29.3656940466  SOLV      370             0.0000000000
      1224       381  TIP3      H2             -4.4784519867      -24.4004492260      -29.3073390797  SOLV      370             0.0000000000
      1225       382  TIP3      OH2            -2.0279115555      -23.5868555905      -31.8814296215  SOLV      371             0.0000000000
      1226       382  TIP3      H1             -1.0619837155      -23.5195324282      -32.0448419828  SOLV      371             0.0000000000
      1227       382  TIP3      H2             -2.4224242160      -23.3138630672      -32.7404058043  SOLV      371             0.0000000000
      1228       383  TIP3      OH2             6.0807395705      -23.2205519091      -26.9427684059  SOLV      372             0.0000000000
      1229       383  TIP3      H1              5.5352103874      -23.1571497280      -26.1347747379  SOLV      372             0.0000000000
      1230       383  TIP3      H2              5.4974084973      -23.8233365037      -27.4735685341  SOLV      372             0.0000000000
      1231       384  TIP3      OH2            -3.4178922111      -23.0610421038      -34.1470295505  SOLV      373             0.0000000000
      1232       384  TIP3      H1             -4.2882715444      -23.2834479884      -34.5249160207  SOLV      373             0.0000000000
      1233       384  TIP3      H2             -2.9381481840      -22.7079705693      -34.9241005928  SOLV      373             0.0000000000
      1234       385  TIP3      OH2             7.4938634933       -6.4516135612      -24.8470379496  SOLV      374             0.0000000000
      1235       385  TIP3      H1              7.4814126701       -6.1765030396      -25.7796469478  SOLV      374             0.0000000000
      1236       385  TIP3      H2              8.3141733851       -6.0085210272      -24.5354117723  SOLV      374             0.0000000000
      1237       386  TIP3      OH2            -2.9478508658      -15.3510843886      -20.6801124544  SOLV      375             0.0000000000
      1238       386  TIP3      H1             -2.1530009992      -15.0416053760      -20.2016535612  SOLV      375             0.0000000000
      1239       386  TIP3      H2             -3.6025538251      -15.3359974257      -19.9545184672  SOLV      375             0.0000000000
      1240       387  TIP3      OH2             1.6826025016      -20.7691903106      -28.1103191873  SOLV      376             0.0000000000
      1241       387  TIP3      H1              2.2989501830      -21.2411982264      -28.6936334157  SOLV      376             0.0000000000
      1242       387  TIP3      H2              1.7276253764      -21.3118197799      -27.3046569172  SOLV      376             0.0000000000
      1243       388  TIP3      OH2            -3.2206102608      -25.8589716822      -29.4597219148  SOLV      377             0.0000000000
      1244       388  TIP3      H1             -3.3387057716      -26.7120501755      -28.9981835054  SOLV      377             0.0000000000
      1245       388  TIP3      H2             -2.8296196835      -26.1340500565      -30.3115577654  SOLV      377             0.0000000000
      1246       389  TIP3      OH2             1.3937014643      -21.8365752662      -25.1019207793  SOLV      378             0.0000000000
      1247       389  TIP3      H1              0.5137289752      -21.4174169159      -25.0486728393  SOLV      378             0.0000000000
      1248       389  TIP3      H2              1.9897441255      -21.1700834669      -24.7065175506  SOLV      378             0.0000000000
      1249       390  TIP3      OH2            -1.2034096604      -17.9010632370      -34.3001717172  SOLV      379             0.0000000000
      1250       390  TIP3      H1             -1.9229300642      -18.5603092666      -34.4084284381  SOLV      379             0.0000000000
      1251       390  TIP3      H2             -1.4020840094      -17.5724444483      -33.3869825138  SOLV      379             0.0000000000
      1252       391  TIP3      OH2             7.7685185240      -15.5734904660      -28.0186296507  SOLV      380             0.0000000000
      1253       391  TIP3      H1              7.9964458670      -15.0495523223      -28.8145659243  SOLV      380             0.0000000000
      1254       391  TIP3      H2              6.9326003384      -16.0142613111      -28.2891107405  SOLV      380             0.0000000000
      1255       392  TIP3      OH2             3.3529508249      -24.7968609309      -35.5792745745  SOLV      381             0.0000000000
      1256       392  TIP3      H1              2.3905756505      -24.9670432018      -35.4843021994  SOLV      381             0.0000000000
      1257       392  TIP3      H2              3.4524892106      -23.8786578820      -35.2615525469  SOLV      381             0.0000000000
      1258       393  TIP3      OH2             2.7427199757      -14.7491037876      -24.2842569027  SOLV      382             0.0000000000
      1259       393  TIP3      H1              3.1471893904      -14.8681168805      -23.4156688760  SOLV      382             0.0000000000
      1260       393  TIP3      H2              2.3957788221      -13.8412978702      -24.2393932803  SOLV      382             0.0000000000
      1261       394  TIP3      OH2             4.0261664330      -22.2851831904      -34.5604600210  SOLV      383             0.0000000000
      1262       394  TIP3      H1              4.9655057361      -22.2738322217      -34.2881025478  SOLV      383             0.0000000000
      1263       394  TIP3      H2              3.9195866791      -21.4354954589      -35.0215012591  SOLV      383             0.0000000000
      1264       395  TIP3      OH2            -4.2714784763      -17.7165527758      -27.5523496719  SOLV      384             0.0000000000
      1265       395  TIP3      H1             -3.8894351904      -17.9859786977      -28.4133410432  SOLV      384             0.0000000000
      1266       395  TIP3      H2             -3.7422139044      -18.2473674014      -26.9363640610  SOLV      384             0.0000000000
      1267       396  TIP3      OH2             0.2934372775      -16.4247055205      -36.0498729224  SOLV      385             0.0000000000
      1268       396  TIP3      H1             -0.1889330824      -15.5643685344      -35.9845588932  SOLV      385             0.0000000000
      1269       396  TIP3      H2             -0.2405706013      -16.9748471999      -35.4332577797  SOLV      385             0.0000000000
      1270       397  TIP3      OH2            -5.4317109815      -18.5150867948      -21.3773912992  SOLV      386             0.0000000000
      1271       397  TIP3      H1             -5.2768813236      -18.6422793658      -20.4207993542  SOLV      386             0.0000000000
      1272       397  TIP3      H2             -6.1371181558      -19.1626962405      -21.5433483221  SOLV      386             0.0000000000
      1273       398  TIP3      OH2             1.8453629636      -17.3403080741      -21.1831685307  SOLV      387             0.0000000000
      1274       398  TIP3      H1              1.2340952139      -17.9027706657      -21.6818973613  SOLV      387             0.0000000000
      1275       398  TIP3      H2              2.7103073801      -17.7048890407      -21.4717581718  SOLV      387             0.0000000000
      1276       399  TIP3      OH2             4.3652956005      -12.1591641697      -25.3071824681  SOLV      388             0.0000000000
      1277       399  TIP3      H1              3.4017937748      -12.1444222247      -25.1686986334  SOLV      388             0.0000000000
      1278       399  TIP3      H2              4.6656187027      -11.6277591454      -24.5385640231  SOLV      388             0.0000000000
      1279       400  TIP3      OH2             8.0611148847      -21.4625629662      -36.0197786981  SOLV      389             0.0000000000
      1280       400  TIP3      H1              7.7111718756      -21.9544168852      -36.7737153412  SOLV      389             0.0000000000
      1281       400  TIP3      H2              8.1977339728      -20.5799468169      -36.4258115366  SOLV      389             0.0000000000
      1282       401  TIP3      OH2            10.6698890317      -12.8341179837      -25.4433979366  SOLV      390             0.0000000000
      1283       401  TIP3      H1              9.6932834040      -12.8854396435      -25.5342202579  SOLV      390             0.0000000000
      1284       401  TIP3      H2             10.9370439582      -13.1261129055      -26.3444103634  SOLV      390             0.0000000000
      1285       402  TIP3      OH2             5.6186144026      -13.4284246912      -37.1924914590  SOLV      391             0.0000000000
      1286       402  TIP3      H1              5.3348817167      -13.6684980252      -36.2933893621  SOLV      391             0.0000000000
      1287       402  TIP3      H2              5.1991276291      -14.1226657147      -37.7128979900  SOLV      391             0.0000000000
      1288       403  TIP3      OH2             5.4478124236      -16.9392976372      -28.8699507444  SOLV      392             0.0000000000
      1289       403  TIP3      H1              4.5128232568      -17.1733818900      -28.7150356120  SOLV      392             0.0000000000
      1290       403  TIP3      H2              5.7682776823      -17.7617847292      -29.2928278304  SOLV      392             0.0000000000
      1291       404  TIP3      OH2            -3.2392566902      -14.6372492265      -31.2683363475  SOLV      393             0.0000000000
      1292       404  TIP3      H1             -3.2996545673      -13.8258259281      -31.8095541925  SOLV      393             0.0000000000
      1293       404  TIP3      H2             -4.1696115510      -14.8340149704      -31.1143369865  SOLV      393             0.0000000000
      1294       405  TIP3      OH2            -7.0926804539      -21.6949447365      -34.1242211763  SOLV      394             0.0000000000
      1295       405  TIP3      H1             -6.8916945556      -20.7578646635      -33.9308265248  SOLV      394             0.0000000000
      1296       405  TIP3      H2             -8.0382692607      -21.7312077718      -33.9170437865  SOLV      394             0.0000000000
      1297       406  TIP3      OH2            -1.9631601408      -17.0277696331      -31.8773804688  SOLV      395             0.0000000000
      1298       406  TIP3      H1             -2.2936750234      -16.1335508651      -31.6576593841  SOLV      395             0.0000000000
      1299       406  TIP3      H2             -2.2780218212      -17.5444347113      -31.1121312266  SOLV      395             0.0000000000
      1300       407  TIP3      OH2            -0.5452571731      -11.2335187010      -26.5914643012  SOLV      396             0.0000000000
      1301       407  TIP3      H1             -0.1181554175      -10.5001478605      -27.0815276919  SOLV      396             0.0000000000
      1302       407  TIP3      H2              0.2151369671      -11.6078916854      -26.1174756349  SOLV      396             0.0000000000
      1303       408  TIP3      OH2            -4.0889695974      -12.2568558028      -32.7493285951  SOLV      397             0.0000000000
      1304       408  TIP3      H1             -4.9359302823      -12.1490300956      -32.2728274591  SOLV      397             0.0000000000
      1305       408  TIP3      H2             -3.7450667392      -11.3348153550      -32.7188063460  SOLV      397             0.0000000000
      1306       409  TIP3      OH2             3.2647959296      -14.8852738457      -26.9638878943  SOLV      398             0.0000000000
      1307       409  TIP3      H1              3.1454193643      -14.9056350823      -25.9872344858  SOLV      398             0.0000000000
      1308       409  TIP3      H2              4.0649680957      -15.4176751943      -27.0672109302  SOLV      398             0.0000000000
      1309       410  TIP3      OH2             3.1322294999      -15.6765294548      -38.0084691493  SOLV      399             0.0000000000
      1310       410  TIP3      H1              3.6903408078      -16.1090960383      -37.3217236349  SOLV      399             0.0000000000
      1311       410  TIP3      H2              2.2530703780      -15.9354484529      -37.6987800314  SOLV      399             0.0000000000
      1312       411  TIP3      OH2             5.7805332864       -9.6004189126      -26.5079829411  SOLV      400             0.0000000000
      1313       411  TIP3      H1              4.9636191729      -10.1334460732      -26.5617873979  SOLV      400             0.0000000000
      1314       411  TIP3      H2              5.6213262400       -8.9415142581      -27.2191840949  SOLV      400             0.0000000000
      1315       412  TIP3      OH2            -3.4284762043      -23.4269096492      -21.3244871337  SOLV      401             0.0000000000
      1316       412  TIP3      H1             -4.3985301555      -23.3701306042      -21.2209238524  SOLV      401             0.0000000000
      1317       412  TIP3      H2             -3.1785941094      -23.9771055015      -20.5689485325  SOLV      401             0.0000000000
      1318       413  TIP3      OH2             4.7388389971      -16.7351824728      -36.0865458071  SOLV      402             0.0000000000
      1319       413  TIP3      H1              4.5900937719      -17.3102930390      -35.3069492645  SOLV      402             0.0000000000
      1320       413  TIP3      H2              5.7154142382      -16.7081444538      -36.0938258304  SOLV      402             0.0000000000
      1321       414  TIP3      OH2            -6.1981153467      -12.6251186130      -24.9966238728  SOLV      403             0.0000000000
      1322       414  TIP3      H1             -5.6225131231      -13.3004102453      -24.5979870572  SOLV      403             0.0000000000
      1323       414  TIP3      H2             -5.9499874141      -11.8413021815      -24.4867731874  SOLV      403             0.0000000000
      1324       415  TIP3      OH2            -3.2716780259      -16.2155539340      -38.2521262187  SOLV      404             0.0000000000
      1325       415  TIP3      H1             -2.3880688276      -16.6491868229      -38.2882240294  SOLV      404             0.0000000000
      1326       415  TIP3      H2             -3.4748546664      -16.2121934277      -37.2986850514  SOLV      404             0.0000000000
      1327       416  TIP3      OH2            -3.7097325219      -16.0978216055      -35.4860008339  SOLV      405             0.0000000000
      1328       416  TIP3      H1             -3.0111935739      -16.3458318266      -34.8635279559  SOLV      405             0.0000000000
      1329       416  TIP3      H2             -3.7149211481      -15.1165218831      -35.3904536895  SOLV      405             0.0000000000
      1330       417  TIP3      OH2            -6.4328796965      -19.0454495255      -33.3629889006  SOLV      406             0.0000000000
      1331       417  TIP3      H1             -7.1642330127      -18.6859629358      -32.8173471796  SOLV      406             0.0000000000
      1332       417  TIP3      H2             -6.3830850350      -18.3573065115      -34.0563949689  SOLV      406             0.0000000000
      1333       418  TIP3      OH2             4.9432136970      -22.6761420759      -24.3459408358  SOLV      407             0.0000000000
      1334       418  TIP3      H1              5.8496510453      -22.4026521889      -24.1284608868  SOLV      407             0.0000000000
      1335       418  TIP3      H2              4.8601924293      -23.5348604366      -23.8794610296  SOLV      407             0.0000000000
      1336       419  TIP3      OH2             3.9348517392      -25.5888196127      -32.8328269690  SOLV      408             0.0000000000
      1337       419  TIP3      H1              3.7804016350      -25.2289130748      -33.7220202588  SOLV      408             0.0000000000
      1338       419  TIP3      H2              4.0619697682      -24.7887014805      -32.2887338033  SOLV      408             0.0000000000
      1339       420  TIP3      OH2            -1.1441378664      -14.1700133419      -35.9164928948  SOLV      409             0.0000000000
      1340       420  TIP3      H1             -1.9873765406      -13.8645239885      -35.5254389318  SOLV      409             0.0000000000
      1341       420  TIP3      H2             -1.0668165695      -13.5652765452      -36.6657516036  SOLV      409             0.0000000000
      1342       421  TIP3      OH2             0.7421625957      -23.5347337480      -31.7761831794  SOLV      410             0.0000000000
      1343       421  TIP3      H1              1.3888055603      -22.8112271420      -31.9168498086  SOLV      410             0.0000000000
      1344       421  TIP3      H2              0.8183012922      -23.6484538790      -30.7980748386  SOLV      410             0.0000000000
      1345       422  TIP3      OH2             3.3938245829      -20.3465288747      -23.7808817812  SOLV      411             0.0000000000
      1346       422  TIP3      H1              3.7268735046      -19.8942850030      -22.9805698469  SOLV      411             0.0000000000
      1347       422  TIP3      H2              3.9188080336      -21.1752744619      -23.7982325734  SOLV      411             0.0000000000
      1348       423  TIP3      OH2            -3.6754687307      -13.3947221320      -35.2097538785  SOLV      412             0.0000000000
      1349       423  TIP3      H1             -3.9971562169      -12.7025139238      -35.8312185128  SOLV      412             0.0000000000
      1350       423  TIP3      H2             -3.8612630573      -12.9713182341      -34.3413847625  SOLV      412             0.0000000000
      1351       424  TIP3      OH2            -2.7142778776      -26.2201662437      -32.3838706800  SOLV      413             0.0000000000
      1352       424  TIP3      H1             -2.6367623722      -25.2503526413      -32.3184531034  SOLV      413             0.0000000000
      1353       424  TIP3      H2             -1.8223231113      -26.4333462634      -32.7095981198  SOLV      413             0.0000000000
      1354       425  TIP3      OH2             9.7829553028      -21.3361712674      -23.8962068072  SOLV      414             0.0000000000
      1355       425  TIP3      H1              8.8020622695      -21.3306956523      -23.8249984362  SOLV      414             0.0000000000
      1356       425  TIP3      H2              9.8818118202      -21.7781332796      -24.7505627390  SOLV      414             0.0000000000
      1357       426  TIP3      OH2             6.2906502002      -19.3897548339      -30.0608308764  SOLV      415             0.0000000000
      1358       426  TIP3      H1              5.5124344654      -19.9700136836      -29.9496017033  SOLV      415             0.0000000000
      1359       426  TIP3      H2              6.9802050137      -19.8741962882      -29.5573838370  SOLV      415             0.0000000000
      1360       427  TIP3      OH2            -6.3093178768      -17.0530752085      -35.3780827321  SOLV      416             0.0000000000
      1361       427  TIP3      H1             -5.4525942993      -16.5801919153      -35.2994736992  SOLV      416             0.0000000000
      1362       427  TIP3      H2             -6.0811149252      -17.6642969033      -36.1059032804  SOLV      416             0.0000000000
      1363       428  TIP3      OH2             6.0035374404       -9.7833279474      -30.5898806723  SOLV      417             0.0000000000
      1364       428  TIP3      H1              5.5805971209       -9.3068551821      -31.3383096966  SOLV      417             0.0000000000
      1365       428  TIP3      H2              6.9499695524       -9.5963851496      -30.7829119379  SOLV      417             0.0000000000
      1366       429  TIP3      OH2            -3.3523385148      -27.0969470690      -25.2594838537  SOLV      418             0.0000000000
      1367       429  TIP3      H1             -3.5796510973      -27.4152100753      -26.1592428560  SOLV      418             0.0000000000
      1368       429  TIP3      H2             -3.3788740345      -27.9222106312      -24.7346592060  SOLV      418             0.0000000000
      1369       430  TIP3      OH2            -7.8525716721      -14.9072003574      -31.5018159561  SOLV      419             0.0000000000
      1370       430  TIP3      H1             -8.5038531314      -14.6306854127      -30.8430602313  SOLV      419             0.0000000000
      1371       430  TIP3      H2             -8.2173972465      -14.4926451706      -32.3209376944  SOLV      419             0.0000000000
      1372       431  TIP3      OH2            -6.2404148262       -9.4378394364      -20.7678145932  SOLV      420             0.0000000000
      1373       431  TIP3      H1             -5.3830614372       -9.3994497413      -20.2845805514  SOLV      420             0.0000000000
      1374       431  TIP3      H2             -6.4117571378      -10.3928250602      -20.7579222635  SOLV      420             0.0000000000
      1375       432  TIP3      OH2            -1.5232631040       -9.9393981507      -20.2897182237  SOLV      421             0.0000000000
      1376       432  TIP3      H1             -0.5644922425      -10.0593808251      -20.2493799660  SOLV      421             0.0000000000
      1377       432  TIP3      H2             -1.7589419989      -10.5629212395      -21.0060390626  SOLV      421             0.0000000000
      1378       433  TIP3      OH2            -1.6787243865      -14.0737770489      -38.9693515698  SOLV      422             0.0000000000
      1379       433  TIP3      H1             -2.4161084582      -14.6865191197      -38.7594447763  SOLV      422             0.0000000000
      1380       433  TIP3      H2             -1.1498493787      -14.6422598606      -39.5444282618  SOLV      422             0.0000000000
      1381       434  TIP3      OH2             4.9164796097      -10.8107067624      -22.9692753178  SOLV      423             0.0000000000
      1382       434  TIP3      H1              4.8529097527      -11.4974259107      -22.2658865137  SOLV      423             0.0000000000
      1383       434  TIP3      H2              5.6913912270      -10.2910561484      -22.6761028594  SOLV      423             0.0000000000
      1384       435  TIP3      OH2             2.8630574878      -13.4739387486      -39.5968066774  SOLV      424             0.0000000000
      1385       435  TIP3      H1              2.9766329838      -14.2577736573      -39.0122437463  SOLV      424             0.0000000000
      1386       435  TIP3      H2              3.7622690201      -13.1327068227      -39.6828030103  SOLV      424             0.0000000000
      1387       436  TIP3      OH2            -4.9746340666      -15.4452793113      -18.7639937520  SOLV      425             0.0000000000
      1388       436  TIP3      H1             -4.8409777818      -16.4072521736      -18.6827142435  SOLV      425             0.0000000000
      1389       436  TIP3      H2             -5.8464916263      -15.4031687694      -19.2133134618  SOLV      425             0.0000000000
      1390       437  TIP3      OH2            -4.9242305206      -18.9490019270      -36.8799349352  SOLV      426             0.0000000000
      1391       437  TIP3      H1             -4.6852792683      -19.3301211319      -36.0174197341  SOLV      426             0.0000000000
      1392       437  TIP3      H2             -4.0841082785      -18.5589952086      -37.1506820084  SOLV      426             0.0000000000
      1393       438  TIP3      OH2             1.0796333567      -14.5694771311      -21.0085082198  SOLV      427             0.0000000000
      1394       438  TIP3      H1              0.6900993721      -14.3353947089      -21.8763514490  SOLV      427             0.0000000000
      1395       438  TIP3      H2              1.3987439140      -15.4840314674      -21.1524285713  SOLV      427             0.0000000000
      1396       439  TIP3      OH2            -0.7669361138      -17.2553488240      -38.4189382156  SOLV      428             0.0000000000
      1397       439  TIP3      H1             -0.3363282709      -16.9363402906      -37.5983631679  SOLV      428             0.0000000000
      1398       439  TIP3      H2             -0.1103349974      -17.8678174689      -38.7656251609  SOLV      428             0.0000000000
      1399       440  TIP3      OH2             6.0036025058      -14.4405100793      -24.9295091092  SOLV      429             0.0000000000
      1400       440  TIP3      H1              6.7852848191      -14.0418226833      -25.3598187905  SOLV      429             0.0000000000
      1401       440  TIP3      H2              5.3333490029      -13.7503609633      -25.1070096647  SOLV      429             0.0000000000
      1402       441  TIP3      OH2            -3.7818040270      -18.0852110594      -18.8825499599  SOLV      430             0.0000000000
      1403       441  TIP3      H1             -2.9742879896      -18.4935095679      -19.2171476700  SOLV      430             0.0000000000
      1404       441  TIP3      H2             -3.4808457651      -17.7401313045      -18.0147743134  SOLV      430             0.0000000000
      1405       442  TIP3      OH2            -3.1647740999      -19.8358655120      -34.6461692109  SOLV      431             0.0000000000
      1406       442  TIP3      H1             -3.4279169942      -20.2275527118      -33.7953514575  SOLV      431             0.0000000000
      1407       442  TIP3      H2             -2.7645335696      -20.5970156794      -35.1128265966  SOLV      431             0.0000000000
      1408       443  TIP3      OH2            -0.4398359884      -19.3014446039      -22.2989818231  SOLV      432             0.0000000000
      1409       443  TIP3      H1             -1.2091212723      -18.6915432772      -22.2987716448  SOLV      432             0.0000000000
      1410       443  TIP3      H2              0.0915661231      -18.9394244581      -23.0486023414  SOLV      432             0.0000000000
      1411       444  TIP3      OH2            -2.0771053021      -21.9345801151      -36.2156355380  SOLV      433             0.0000000000
      1412       444  TIP3      H1             -2.2523200733      -22.4136864483      -37.0405093967  SOLV      433             0.0000000000
      1413       444  TIP3      H2             -1.0956565146      -21.8382107114      -36.2571247881  SOLV      433             0.0000000000
      1414       445  TIP3      OH2             4.7420310862      -15.2443064940      -20.9882822343  SOLV      434             0.0000000000
      1415       445  TIP3      H1              5.5221507233      -15.5483529346      -21.4691268922  SOLV      434             0.0000000000
      1416       445  TIP3      H2              4.6857484533      -15.8895170202      -20.2608372095  SOLV      434             0.0000000000
      1417       446  TIP3      OH2             6.1301126511      -18.3211604334      -39.0339442727  SOLV      435             0.0000000000
      1418       446  TIP3      H1              6.0019465503      -18.4920833061      -39.9936155747  SOLV      435             0.0000000000
      1419       446  TIP3      H2              6.1045006279      -17.3566797662      -38.9801835775  SOLV      435             0.0000000000
      1420       447  TIP3      OH2             0.8172410484      -21.3798901005      -21.0950858224  SOLV      436             0.0000000000
      1421       447  TIP3      H1              0.8433380190      -22.1361681984      -21.7174111487  SOLV      436             0.0000000000
      1422       447  TIP3      H2              0.3891909361      -20.6870491701      -21.6493900777  SOLV      436             0.0000000000
      1423       448  TIP3      OH2             0.8368579220      -23.5227767693      -22.9430412271  SOLV      437             0.0000000000
      1424       448  TIP3      H1              1.1419855892      -23.0780332840      -23.7647514726  SOLV      437             0.0000000000
      1425       448  TIP3      H2             -0.0983800814      -23.7161564734      -23.1662824259  SOLV      437             0.0000000000
      1426       449  TIP3      OH2             1.0299328627      -18.1621764118      -24.2041283499  SOLV      438             0.0000000000
      1427       449  TIP3      H1              1.9052917570      -18.0365010974      -24.5936982267  SOLV      438             0.0000000000
      1428       449  TIP3      H2              0.4870568146      -17.5134501330      -24.7017433085  SOLV      438             0.0000000000
      1429       450  TIP3      OH2             6.8914484855      -18.4900322069      -20.4755753507  SOLV      439             0.0000000000
      1430       450  TIP3      H1              7.3887221491      -19.3210978086      -20.4371226757  SOLV      439             0.0000000000
      1431       450  TIP3      H2              7.5530302174      -17.8787876673      -20.8316127970  SOLV      439             0.0000000000
      1432       451  TIP3      OH2             7.2982462545      -15.9528443067      -23.1008262456  SOLV      440             0.0000000000
      1433       451  TIP3      H1              6.7228309649      -15.3961677964      -23.6773894943  SOLV      440             0.0000000000
      1434       451  TIP3      H2              8.1787771293      -15.7337133494      -23.4820156259  SOLV      440             0.0000000000
      1435       452  TIP3      OH2            -0.3963367902      -20.3138129974      -18.7431860091  SOLV      441             0.0000000000
      1436       452  TIP3      H1             -1.1004654935      -20.9774510082      -18.6088721685  SOLV      441             0.0000000000
      1437       452  TIP3      H2             -0.0959215650      -20.5263577150      -19.6490734373  SOLV      441             0.0000000000
      1438       453  TIP3      OH2             2.1660809453      -25.8544544615      -22.1925991276  SOLV      442             0.0000000000
      1439       453  TIP3      H1              1.6936254626      -25.0491128477      -22.5016164276  SOLV      442             0.0000000000
      1440       453  TIP3      H2              1.5367624916      -26.5566308617      -22.4455156897  SOLV      442             0.0000000000
      1441       454  TIP3      OH2             3.4164922845      -20.9085145169      -20.1394872845  SOLV      443             0.0000000000
      1442       454  TIP3      H1              3.2760518037      -20.9762241017      -19.1829652361  SOLV      443             0.0000000000
      1443       454  TIP3      H2              2.5193016490      -21.1215168707      -20.4758811161  SOLV      443             0.0000000000
      1444       455  TIP3      OH2             5.8176337830      -21.2864394311      -21.5611044399  SOLV      444             0.0000000000
      1445       455  TIP3      H1              5.0652414832      -21.3207941665      -20.9394848813  SOLV      444             0.0000000000
      1446       455  TIP3      H2              6.5657441811      -21.6021977331      -21.0125828333  SOLV      444             0.0000000000
      1447       456  TIP3      OH2             8.0724941999      -21.9276985236      -20.0800803361  SOLV      445             0.0000000000
      1448       456  TIP3      H1              8.2186445209      -22.8860437193      -19.9368660124  SOLV      445             0.0000000000
      1449       456  TIP3      H2              8.0531376841      -21.5710035962      -19.1679401636  SOLV      445             0.0000000000
      1450       457  TIP3      OH2            -2.0743460370      -22.5075719343      -18.2029036050  SOLV      446             0.0000000000
      1451       457  TIP3      H1             -2.0416419877      -23.4417013704      -18.4841506909  SOLV      446             0.0000000000
      1452       457  TIP3      H2             -1.8012075053      -22.5694806779      -17.2694541089  SOLV      446             0.0000000000
      1453       458  TIP3      OH2             2.8579271379      -25.9611042350      -19.5654372081  SOLV      447             0.0000000000
      1454       458  TIP3      H1              3.6414657292      -26.5450250501      -19.6687652210  SOLV      447             0.0000000000
      1455       458  TIP3      H2              2.6065433969      -25.8786414234      -20.5149665895  SOLV      447             0.0000000000
      1456       459  TIP3      OH2             3.6949048270      -23.6597061833      -18.1282803287  SOLV      448             0.0000000000
      1457       459  TIP3      H1              3.4849008306      -24.3506020610      -18.7856549788  SOLV      448             0.0000000000
      1458       459  TIP3      H2              2.9348124104      -23.0443453197      -18.2174115534  SOLV      448             0.0000000000
      1459       460  TIP3      OH2            -4.1690930360      -11.4413814175      -37.0853343149  SOLV      449             0.0000000000
      1460       460  TIP3      H1             -3.2403267296      -11.4285910081      -37.3965225686  SOLV      449             0.0000000000
      1461       460  TIP3      H2             -4.5992351555      -10.8104202146      -37.6722802094  SOLV      449             0.0000000000
      1462       461  TIP3      OH2            -9.0332826984      -16.8890264347      -34.6105083906  SOLV      450             0.0000000000
      1463       461  TIP3      H1             -8.1548676557      -16.7179038346      -35.0099512047  SOLV      450             0.0000000000
      1464       461  TIP3      H2             -9.1276905827      -17.8544372925      -34.7884695490  SOLV      450             0.0000000000
      1465       462  TIP3      OH2           -10.1095200333      -11.4071273938      -30.7671777931  SOLV      451             0.0000000000
      1466       462  TIP3      H1            -10.7251684602      -12.0349667407      -31.2012939192  SOLV      451             0.0000000000
      1467       462  TIP3      H2             -9.6374233615      -12.0072245798      -30.1498417144  SOLV      451             0.0000000000
      1468       463  TIP3      OH2            -8.7519050617      -12.9625370765      -28.9341053973  SOLV      452             0.0000000000
      1469       463  TIP3      H1             -8.8345334845      -13.6596251438      -28.2615081515  SOLV      452             0.0000000000
      1470       463  TIP3      H2             -8.2014192404      -12.3224257629      -28.4456029473  SOLV      452             0.0000000000
      1471       464  TIP3      OH2             8.5760759504       -8.9482635526      -30.9369775774  SOLV      453             0.0000000000
      1472       464  TIP3      H1              8.7836412933       -8.6488982672      -30.0302620318  SOLV      453             0.0000000000
      1473       464  TIP3      H2              9.2217960472       -8.4549868268      -31.4637165888  SOLV      453             0.0000000000
      1474       465  TIP3      OH2             8.8147096460       -8.7242975996      -28.1402498529  SOLV      454             0.0000000000
      1475       465  TIP3      H1              8.3865247660       -9.6074025472      -28.1439978445  SOLV      454             0.0000000000
      1476       465  TIP3      H2              9.5664018265       -8.9106525279      -27.5550185318  SOLV      454             0.0000000000
      1477       466  TIP3      OH2             9.3079593437      -11.9326794524      -22.3898470475  SOLV      455             0.0000000000
      1478       466  TIP3      H1              8.5887971523      -11.8146079970      -21.7361032164  SOLV      455             0.0000000000
      1479       466  TIP3      H2              9.7478395395      -11.0584204933      -22.3586180142  SOLV      455             0.0000000000
      1480       467  TIP3      OH2             7.5445629935      -16.7389152495      -36.1733452987  SOLV      456             0.0000000000
      1481       467  TIP3      H1              8.2554990251      -16.1168017130      -36.3842659322  SOLV      456             0.0000000000
      1482       467  TIP3      H2              7.8835319270      -17.1359802018      -35.3370150469  SOLV      456             0.0000000000
      1483       468  TIP3      OH2             8.7145546564      -18.1337290614      -34.1614370141  SOLV      457             0.0000000000
      1484       468  TIP3      H1              8.0543704698      -18.5933248808      -33.5907154554  SOLV      457             0.0000000000
      1485       468  TIP3      H2              9.3705207744      -17.8221698487      -33.5032413878  SOLV      457             0.0000000000
      1486       469  TIP3      OH2             9.3102911246      -14.1765466231      -29.8616055694  SOLV      458             0.0000000000
      1487       469  TIP3      H1              9.8363542655      -14.8652668920      -30.3132148537  SOLV      458             0.0000000000
      1488       469  TIP3      H2              9.2808603285      -13.4627405252      -30.5261975838  SOLV      458             0.0000000000
      1489       470  TIP3      OH2             7.5612267246      -11.2089184343      -27.9279426871  SOLV      459             0.0000000000
      1490       470  TIP3      H1              6.8516092532      -10.7779770724      -27.4107063850  SOLV      459             0.0000000000
      1491       470  TIP3      H2              7.0579950159      -11.6513028649      -28.6435288090  SOLV      459             0.0000000000
      1492       471  TIP3      OH2             8.2619846648      -19.1166543372      -37.4741635223  SOLV      460             0.0000000000
      1493       471  TIP3      H1              7.4792943668      -19.0045052208      -38.0528759631  SOLV      460             0.0000000000
      1494       471  TIP3      H2              8.1252178203      -18.3592922538      -36.8746962793  SOLV      460             0.0000000000
      1495       472  TIP3      OH2             6.8691695490      -19.5750847473      -32.7460300257  SOLV      461             0.0000000000
      1496       472  TIP3      H1              6.8629977376      -20.5451280458      -32.8520734756  SOLV      461             0.0000000000
      1497       472  TIP3      H2              6.7103786149      -19.4762059107      -31.7786594508  SOLV      461             0.0000000000
      1498       473  TIP3      OH2            -6.8939264789      -18.8399570072      -25.2271315077  SOLV      462             0.0000000000
      1499       473  TIP3      H1             -6.9174269060      -19.1773276647      -26.1469800720  SOLV      462             0.0000000000
      1500       473  TIP3      H2             -5.9193107606      -18.8180329582      -25.0700472592  SOLV      462             0.0000000000
      1501       474  TIP3      OH2             9.7737213688      -15.2973893991      -24.1348243411  SOLV      463             0.0000000000
      1502       474  TIP3      H1             10.4772315414      -15.9724441550      -24.2611600807  SOLV      463             0.0000000000
      1503       474  TIP3      H2             10.0333752340      -14.6052706533      -24.7655543990  SOLV      463             0.0000000000
      1504       475  TIP3      OH2            11.5745422286      -17.3298061362      -24.1064752979  SOLV      464             0.0000000000
      1505       475  TIP3      H1             10.8379623707      -17.8134828792      -23.6744597061  SOLV      464             0.0000000000
      1506       475  TIP3      H2             12.3162629411      -17.9437754223      -23.9164931479  SOLV      464             0.0000000000
      1507       476  TIP3      OH2             6.8070420584      -22.3247750804      -33.7522663099  SOLV      465             0.0000000000
      1508       476  TIP3      H1              7.1938615014      -23.2280132542      -33.6195691394  SOLV      465             0.0000000000
      1509       476  TIP3      H2              7.3204086363      -22.0373275108      -34.5372980561  SOLV      465             0.0000000000
      1510       477  TIP3      OH2             8.4070578692      -20.7059547452      -28.8170062034  SOLV      466             0.0000000000
      1511       477  TIP3      H1              9.2644994759      -20.4615508308      -29.2321375222  SOLV      466             0.0000000000
      1512       477  TIP3      H2              8.5583853681      -20.3437030155      -27.9227382254  SOLV      466             0.0000000000
      1513       478  TIP3      OH2             9.1739511070      -19.2195503864      -26.5282193677  SOLV      467             0.0000000000
      1514       478  TIP3      H1              8.3947756398      -18.8901011627      -26.0421132633  SOLV      467             0.0000000000
      1515       478  TIP3      H2              9.4906747321      -18.4025399045      -26.9708296885  SOLV      467             0.0000000000
      1516       479  TIP3      OH2            -4.7409084380      -22.0208616691      -18.5783964969  SOLV      468             0.0000000000
      1517       479  TIP3      H1             -3.7628510778      -22.0270260905      -18.5117293763  SOLV      468             0.0000000000
      1518       479  TIP3      H2             -4.9605790005      -22.8682617932      -18.1450300940  SOLV      468             0.0000000000
      1519       480  TIP3      OH2            13.6395814200      -23.2985463350      -20.9735900080  SOLV      469             0.0000000000
      1520       480  TIP3      H1             14.2738748959      -23.9164131563      -21.3977022492  SOLV      469             0.0000000000
      1521       480  TIP3      H2             13.3263725758      -22.7774145382      -21.7453282615  SOLV      469             0.0000000000
      1522       481  TIP3      OH2             7.7140739461      -24.8332395454      -33.3256491266  SOLV      470             0.0000000000
      1523       481  TIP3      H1              8.2447982438      -25.1095094521      -32.5570961586  SOLV      470             0.0000000000
      1524       481  TIP3      H2              7.2027169972      -25.6547870917      -33.4999926964  SOLV      470             0.0000000000
      1525       482  TIP3      OH2            -5.1274112226      -24.9824168020      -25.1243244863  SOLV      471             0.0000000000
      1526       482  TIP3      H1             -4.5028198914      -25.7380408899      -25.0952139426  SOLV      471             0.0000000000
      1527       482  TIP3      H2             -4.5005669123      -24.2465898114      -25.2629879193  SOLV      471             0.0000000000
      1528       483  TIP3      OH2            -7.0722104911      -22.3299792852      -24.4972964470  SOLV      472             0.0000000000
      1529       483  TIP3      H1             -6.5452857773      -22.2852351959      -25.3222228317  SOLV      472             0.0000000000
      1530       483  TIP3      H2             -6.8421088652      -21.4926724996      -24.0756889335  SOLV      472             0.0000000000
      1531       484  TIP3      OH2            12.3270632015      -21.9503344766      -22.9304409575  SOLV      473             0.0000000000
      1532       484  TIP3      H1             11.4857295218      -21.4838412141      -22.7497478180  SOLV      473             0.0000000000
      1533       484  TIP3      H2             11.9883264056      -22.6703243130      -23.5007553429  SOLV      473             0.0000000000
      1534       485  TIP3      OH2             4.3496656694      -10.2345328805      -34.3336161340  SOLV      474             0.0000000000
      1535       485  TIP3      H1              4.8492229104      -10.2826706544      -35.1742108379  SOLV      474             0.0000000000
      1536       485  TIP3      H2              4.8294020772       -9.5456910819      -33.8387814855  SOLV      474             0.0000000000
      1537       486  TIP3      OH2            -5.0164291514      -26.5078213279      -21.3562327642  SOLV      475             0.0000000000
      1538       486  TIP3      H1             -5.5447494541      -26.5176890542      -20.5415935281  SOLV      475             0.0000000000
      1539       486  TIP3      H2             -5.6468602762      -26.0870151461      -21.9749226829  SOLV      475             0.0000000000
      1540       487  TIP3      OH2            -4.6128897814      -12.1987413437      -20.5859535079  SOLV      476             0.0000000000
      1541       487  TIP3      H1             -5.5564884412      -12.4123770473      -20.7159233991  SOLV      476             0.0000000000
      1542       487  TIP3      H2             -4.5090825868      -12.3266881258      -19.6349228961  SOLV      476             0.0000000000
      1543       488  TIP3      OH2            -2.8078455430      -11.8268779058      -25.1004250403  SOLV      477             0.0000000000
      1544       488  TIP3      H1             -3.2763585904      -11.0555499206      -25.4844389366  SOLV      477             0.0000000000
      1545       488  TIP3      H2             -1.9440028062      -11.6932216827      -25.5421462270  SOLV      477             0.0000000000
      1546       489  TIP3      OH2             1.5689675851       -9.4282290876      -23.7280255952  SOLV      478             0.0000000000
      1547       489  TIP3      H1              1.9858043638       -9.4350934636      -22.8382879559  SOLV      478             0.0000000000
      1548       489  TIP3      H2              2.2264811493       -8.8979495924      -24.2278233647  SOLV      478             0.0000000000
      1549       490  TIP3      OH2             3.3839254427       -7.8727768545      -25.0745197008  SOLV      479             0.0000000000
      1550       490  TIP3      H1              4.1003836806       -8.3718534838      -25.4901922058  SOLV      479             0.0000000000
      1551       490  TIP3      H2              3.8992103831       -7.2974736804      -24.4650161436  SOLV      479             0.0000000000
      1552       491  TIP3      OH2            11.3366368565      -24.2937380272      -24.1136499570  SOLV      480             0.0000000000
      1553       491  TIP3      H1             10.4556271595      -24.3783177510      -24.5188830371  SOLV      480             0.0000000000
      1554       491  TIP3      H2             11.6792899379      -25.2132770061      -24.2092450288  SOLV      480             0.0000000000
      1555       492  TIP3      OH2            -6.0822790087       -9.3193725818      -24.7949420955  SOLV      481             0.0000000000
      1556       492  TIP3      H1             -6.9923702118       -9.0148752618      -25.0109555923  SOLV      481             0.0000000000
      1557       492  TIP3      H2             -5.8901357716       -8.7528141204      -24.0320648120  SOLV      481             0.0000000000
      1558       493  TIP3      OH2            -3.7220335744       -9.5064790046      -26.2387944811  SOLV      482             0.0000000000
      1559       493  TIP3      H1             -4.6001925630       -9.3905031500      -25.8132840151  SOLV      482             0.0000000000
      1560       493  TIP3      H2             -3.8979928568       -9.1787643922      -27.1434515544  SOLV      482             0.0000000000
      1561       494  TIP3      OH2             0.5401001720       -9.2494429829      -28.2705336136  SOLV      483             0.0000000000
      1562       494  TIP3      H1             -0.1668416453       -9.0624656529      -28.9148614344  SOLV      483             0.0000000000
      1563       494  TIP3      H2              0.6550129018       -8.3719765303      -27.8464487665  SOLV      483             0.0000000000
      1564       495  TIP3      OH2             3.2367452125       -9.8769018834      -27.7506878255  SOLV      484             0.0000000000
      1565       495  TIP3      H1              2.3006999209       -9.6678256840      -27.9397528962  SOLV      484             0.0000000000
      1566       495  TIP3      H2              3.6931985354       -9.1273153458      -28.1686203264  SOLV      484             0.0000000000
      1567       496  TIP3      OH2             5.2599906078       -7.9615984341      -28.6341068311  SOLV      485             0.0000000000
      1568       496  TIP3      H1              5.1441262621       -7.1064521459      -29.1023722031  SOLV      485             0.0000000000
      1569       496  TIP3      H2              5.5507057286       -8.5504293152      -29.3639013747  SOLV      485             0.0000000000
      1570       497  TIP3      OH2            -6.9782266558      -11.3859836453      -27.4002288007  SOLV      486             0.0000000000
      1571       497  TIP3      H1             -6.7010318810      -11.6575014819      -26.4993438047  SOLV      486             0.0000000000
      1572       497  TIP3      H2             -6.2487467122      -11.8024866544      -27.9139249384  SOLV      486             0.0000000000
      1573       498  TIP3      OH2            -5.0027440820      -12.6309551499      -28.7860650751  SOLV      487             0.0000000000
      1574       498  TIP3      H1             -4.8508653083      -13.4706752441      -28.2904161261  SOLV      487             0.0000000000
      1575       498  TIP3      H2             -4.0891071941      -12.2751473393      -28.8277479595  SOLV      487             0.0000000000
      1576       499  TIP3      OH2            -2.3299529481      -11.7402021934      -28.7301218487  SOLV      488             0.0000000000
      1577       499  TIP3      H1             -2.0280560837      -12.6644821307      -28.8175087450  SOLV      488             0.0000000000
      1578       499  TIP3      H2             -1.8359260330      -11.4866976523      -27.9263447057  SOLV      488             0.0000000000
      1579       500  TIP3      OH2             8.3200119484      -26.4488376789      -29.0339617102  SOLV      489             0.0000000000
      1580       500  TIP3      H1              8.8870866767      -25.9719735764      -29.6795530155  SOLV      489             0.0000000000
      1581       500  TIP3      H2              7.5598479363      -25.8500489416      -28.9727595852  SOLV      489             0.0000000000
      1582       501  TIP3      OH2             9.6314344053      -25.2659051434      -31.2179555938  SOLV      490             0.0000000000
      1583       501  TIP3      H1             10.4377087499      -25.6032340106      -31.6325708926  SOLV      490             0.0000000000
      1584       501  TIP3      H2              9.7325350111      -24.3051368099      -31.3518254619  SOLV      490             0.0000000000
      1585       502  TIP3      OH2            -4.1362841475      -28.0252833511      -27.7786735435  SOLV      491             0.0000000000
      1586       502  TIP3      H1             -5.0269953191      -28.4248572955      -27.8292643916  SOLV      491             0.0000000000
      1587       502  TIP3      H2             -3.5908389660      -28.8440502336      -27.7870720106  SOLV      491             0.0000000000
      1588       503  TIP3      OH2             0.4070075367      -27.6494106482      -28.7163585593  SOLV      492             0.0000000000
      1589       503  TIP3      H1              1.0212367099      -27.3931537556      -29.4156765114  SOLV      492             0.0000000000
      1590       503  TIP3      H2              0.8139805210      -27.2327396755      -27.9360438314  SOLV      492             0.0000000000
      1591       504  TIP3      OH2             6.1288631208      -27.0417995400      -33.4574010995  SOLV      493             0.0000000000
      1592       504  TIP3      H1              5.2755462259      -26.5963896443      -33.2640795039  SOLV      493             0.0000000000
      1593       504  TIP3      H2              6.2948581566      -27.5349247733      -32.6376551896  SOLV      493             0.0000000000
      1594       505  TIP3      OH2            -9.0812584714      -13.5624489512      -33.4972066536  SOLV      494             0.0000000000
      1595       505  TIP3      H1             -9.8172326559      -14.0424072956      -33.9047629159  SOLV      494             0.0000000000
      1596       505  TIP3      H2             -9.2889102564      -12.6538877657      -33.7792335170  SOLV      494             0.0000000000
      1597       506  TIP3      OH2             0.1226398786      -26.0468178679      -32.7291115984  SOLV      495             0.0000000000
      1598       506  TIP3      H1              0.6093133468      -26.6547516164      -32.1564333089  SOLV      495             0.0000000000
      1599       506  TIP3      H2              0.4338269349      -25.1742081730      -32.3942145964  SOLV      495             0.0000000000
      1600       507  TIP3      OH2            -1.5128183754      -11.6598384211      -37.7374791769  SOLV      496             0.0000000000
      1601       507  TIP3      H1             -0.6062256889      -11.4249465592      -38.0369821185  SOLV      496             0.0000000000
      1602       507  TIP3      H2             -1.6317744597      -12.4861633941      -38.2597903990  SOLV      496             0.0000000000
      1603       508  TIP3      OH2             5.7178511907      -10.6786661855      -36.6919400823  SOLV      497             0.0000000000
      1604       508  TIP3      H1              5.8389127139      -11.6407065224      -36.8264381890  SOLV      497             0.0000000000
      1605       508  TIP3      H2              5.2047056224      -10.4486603708      -37.4951913747  SOLV      497             0.0000000000
      1606       509  TIP3      OH2            -2.0041370719      -25.2719154032      -18.8343261410  SOLV      498             0.0000000000
      1607       509  TIP3      H1             -2.4769538245      -25.8660092828      -18.2327042349  SOLV      498             0.0000000000
      1608       509  TIP3      H2             -1.0823619173      -25.5307688353      -18.7012470002  SOLV      498             0.0000000000
      1609       510  TIP3      OH2             0.7119874671      -26.4537702092      -17.5476406645  SOLV      499             0.0000000000
      1610       510  TIP3      H1              1.3487164281      -26.1260343076      -18.2279572203  SOLV      499             0.0000000000
      1611       510  TIP3      H2              0.8689937374      -25.7821846396      -16.8506897271  SOLV      499             0.0000000000
      1612       511  TIP3      OH2            -8.1644751774      -13.3654944687      -37.0129904359  SOLV      500             0.0000000000
      1613       511  TIP3      H1             -8.5261137940      -12.8964785731      -36.2551742309  SOLV      500             0.0000000000
      1614       511  TIP3      H2             -7.3488481033      -13.7376573359      -36.6704097427  SOLV      500             0.0000000000
      1615       512  TIP3      OH2             8.7431829679      -24.6396316360      -19.7972540782  SOLV      501             0.0000000000
      1616       512  TIP3      H1              8.9216711610      -24.9473642121      -18.8828192200  SOLV      501             0.0000000000
      1617       512  TIP3      H2              9.6384114856      -24.6764469673      -20.1975345602  SOLV      501             0.0000000000
      1618       513  TIP3      OH2             8.0688963759       -9.1363203756      -24.8878130973  SOLV      502             0.0000000000
      1619       513  TIP3      H1              7.2779310416       -9.4200239290      -25.3890210018  SOLV      502             0.0000000000
      1620       513  TIP3      H2              7.8860891383       -8.1782238531      -24.7970928923  SOLV      502             0.0000000000
      1621       514  TIP3      OH2            19.9989897165      -15.5451978937      -36.7723511778  SOLV      503             0.0000000000
      1622       514  TIP3      H1             20.6714132316      -15.0228923148      -37.2324355892  SOLV      503             0.0000000000
      1623       514  TIP3      H2             19.8258325676      -16.2817465089      -37.3653199161  SOLV      503             0.0000000000
      1624       515  TIP3      OH2            20.6864678244      -15.2728800539      -33.3044164888  SOLV      504             0.0000000000
      1625       515  TIP3      H1             21.0215532247      -15.6624022823      -32.4797444873  SOLV      504             0.0000000000
      1626       515  TIP3      H2             20.4224771307      -16.0517978247      -33.8224320192  SOLV      504             0.0000000000
      1627       516  TIP3      OH2            13.7509023086      -16.4339841947      -29.7797789940  SOLV      505             0.0000000000
      1628       516  TIP3      H1             13.9663044124      -17.1883756685      -29.1965521067  SOLV      505             0.0000000000
      1629       516  TIP3      H2             14.4836643238      -15.8393000128      -29.5521611988  SOLV      505             0.0000000000
      1630       517  TIP3      OH2            23.1833527737      -12.8033881555      -35.9679072617  SOLV      506             0.0000000000
      1631       517  TIP3      H1             23.1611043829      -13.1140251799      -35.0375478918  SOLV      506             0.0000000000
      1632       517  TIP3      H2             23.2655205625      -11.8467426838      -35.8540222694  SOLV      506             0.0000000000
      1633       518  TIP3      OH2            13.4372935669      -12.3835229874      -32.5938673344  SOLV      507             0.0000000000
      1634       518  TIP3      H1             13.3715414843      -13.3553306805      -32.5376840230  SOLV      507             0.0000000000
      1635       518  TIP3      H2             14.4028047702      -12.2579139035      -32.5250219182  SOLV      507             0.0000000000
      1636       519  TIP3      OH2            10.4674581146      -20.3823324308      -34.7574979251  SOLV      508             0.0000000000
      1637       519  TIP3      H1             10.0641556134      -19.5064910324      -34.6362094914  SOLV      508             0.0000000000
      1638       519  TIP3      H2              9.7079245864      -20.9526457276      -34.5610646933  SOLV      508             0.0000000000
      1639       520  TIP3      OH2            11.0649252280      -17.4952776527      -32.8603793811  SOLV      509             0.0000000000
      1640       520  TIP3      H1             11.5546041890      -18.2806508406      -32.5178818791  SOLV      509             0.0000000000
      1641       520  TIP3      H2             11.7324303170      -17.0810037274      -33.4205597627  SOLV      509             0.0000000000
      1642       521  TIP3      OH2            18.7520877815      -13.1461636283      -32.9536106549  SOLV      510             0.0000000000
      1643       521  TIP3      H1             19.2145075088      -13.9536922413      -33.2657797167  SOLV      510             0.0000000000
      1644       521  TIP3      H2             19.5421865536      -12.6449738793      -32.6836809734  SOLV      510             0.0000000000
      1645       522  TIP3      OH2            22.4805727719      -18.3054442072      -32.6121218731  SOLV      511             0.0000000000
      1646       522  TIP3      H1             23.0359310399      -18.8258104577      -32.0138366243  SOLV      511             0.0000000000
      1647       522  TIP3      H2             23.1075915970      -17.9795349786      -33.2915424240  SOLV      511             0.0000000000
      1648       523  TIP3      OH2            15.9288083592      -21.6506584342      -32.8618487779  SOLV      512             0.0000000000
      1649       523  TIP3      H1             16.0099148844      -21.0021035907      -33.5873841630  SOLV      512             0.0000000000
      1650       523  TIP3      H2             15.8078593874      -22.4862153973      -33.3317734225  SOLV      512             0.0000000000
      1651       524  TIP3      OH2            12.5718381824      -19.5409126775      -31.9101653107  SOLV      513             0.0000000000
      1652       524  TIP3      H1             13.4067436677      -19.6518880832      -31.4092263506  SOLV      513             0.0000000000
      1653       524  TIP3      H2             12.7365913765      -20.1521246407      -32.6542430294  SOLV      513             0.0000000000
      1654       525  TIP3      OH2            16.9965341253      -17.4433759635      -33.9264640523  SOLV      514             0.0000000000
      1655       525  TIP3      H1             17.9216044311      -17.7483772522      -33.8204737256  SOLV      514             0.0000000000
      1656       525  TIP3      H2             16.5603374363      -18.2333418251      -34.2674736652  SOLV      514             0.0000000000
      1657       526  TIP3      OH2            16.1888601728      -21.6459968901      -28.5686090543  SOLV      515             0.0000000000
      1658       526  TIP3      H1             15.5974762094      -21.2442697855      -29.2328293700  SOLV      515             0.0000000000
      1659       526  TIP3      H2             15.6693296269      -21.4853433176      -27.7535314836  SOLV      515             0.0000000000
      1660       527  TIP3      OH2            17.2811829624      -13.9204207862      -30.7028472118  SOLV      516             0.0000000000
      1661       527  TIP3      H1             16.6882161750      -13.2376612900      -30.3266587164  SOLV      516             0.0000000000
      1662       527  TIP3      H2             17.7255372673      -13.4271541528      -31.4264024700  SOLV      516             0.0000000000
      1663       528  TIP3      OH2            14.8605060241      -20.4675088143      -30.6838654522  SOLV      517             0.0000000000
      1664       528  TIP3      H1             15.5281092523      -19.7718726371      -30.4747369500  SOLV      517             0.0000000000
      1665       528  TIP3      H2             15.3002479877      -20.9029804631      -31.4556307934  SOLV      517             0.0000000000
      1666       529  TIP3      OH2            15.5542654872      -11.9682429870      -29.7162426603  SOLV      518             0.0000000000
      1667       529  TIP3      H1             15.3351029890      -11.0627614275      -30.0245997913  SOLV      518             0.0000000000
      1668       529  TIP3      H2             14.7652069498      -12.1377561129      -29.1588210222  SOLV      518             0.0000000000
      1669       530  TIP3      OH2             9.7486361447      -15.1198253663      -37.4187753851  SOLV      519             0.0000000000
      1670       530  TIP3      H1              9.0206321250      -14.7476514132      -37.9362578202  SOLV      519             0.0000000000
      1671       530  TIP3      H2              9.9892746997      -14.3181600450      -36.9006307635  SOLV      519             0.0000000000
      1672       531  TIP3      OH2            24.0687588695      -10.2502635333      -34.5321427612  SOLV      520             0.0000000000
      1673       531  TIP3      H1             23.1582913453      -10.1418031873      -34.1603376790  SOLV      520             0.0000000000
      1674       531  TIP3      H2             23.8966925734      -10.0720413754      -35.4826184793  SOLV      520             0.0000000000
      1675       532  TIP3      OH2            26.0540143590      -10.8786458640      -31.4700805706  SOLV      521             0.0000000000
      1676       532  TIP3      H1             26.0556745949      -11.5931560658      -32.1394902464  SOLV      521             0.0000000000
      1677       532  TIP3      H2             25.9201517834      -10.0816936000      -32.0212156536  SOLV      521             0.0000000000
      1678       533  TIP3      OH2            28.0266164530      -14.7855741649      -32.9922444372  SOLV      522             0.0000000000
      1679       533  TIP3      H1             27.3699877195      -14.0628205449      -32.9554389695  SOLV      522             0.0000000000
      1680       533  TIP3      H2             28.5788013407      -14.5039224006      -33.7314119863  SOLV      522             0.0000000000
      1681       534  TIP3      OH2            24.7926320305      -15.7233448275      -29.9803640065  SOLV      523             0.0000000000
      1682       534  TIP3      H1             24.8824449760      -14.9241808604      -29.4218388258  SOLV      523             0.0000000000
      1683       534  TIP3      H2             23.9186913753      -15.5696863609      -30.3879059019  SOLV      523             0.0000000000
      1684       535  TIP3      OH2            16.2079465812      -11.9489592698      -33.5476533778  SOLV      524             0.0000000000
      1685       535  TIP3      H1             16.0283024557      -12.2877625241      -34.4423213398  SOLV      524             0.0000000000
      1686       535  TIP3      H2             17.0870536757      -12.3495670410      -33.3575011718  SOLV      524             0.0000000000
      1687       536  TIP3      OH2            16.2491764680      -16.3509336443      -31.5104021486  SOLV      525             0.0000000000
      1688       536  TIP3      H1             16.6112021429      -16.6198550137      -32.3931270835  SOLV      525             0.0000000000
      1689       536  TIP3      H2             16.7065113907      -15.5042426299      -31.3354104450  SOLV      525             0.0000000000
      1690       537  TIP3      OH2            21.5632062614      -10.0537183334      -33.5949150916  SOLV      526             0.0000000000
      1691       537  TIP3      H1             21.2927191877       -9.2611395585      -33.1023395482  SOLV      526             0.0000000000
      1692       537  TIP3      H2             21.3021535745      -10.7785358837      -32.9885994375  SOLV      526             0.0000000000
      1693       538  TIP3      OH2            17.6363363942      -10.8272198622      -28.2398619526  SOLV      527             0.0000000000
      1694       538  TIP3      H1             17.0301016059      -10.2222973412      -27.7602751508  SOLV      527             0.0000000000
      1695       538  TIP3      H2             16.9870931352      -11.3579305501      -28.7431942511  SOLV      527             0.0000000000
      1696       539  TIP3      OH2            15.1455467171      -15.2490207959      -27.2222506559  SOLV      528             0.0000000000
      1697       539  TIP3      H1             15.2181601288      -14.3640771847      -26.8077289051  SOLV      528             0.0000000000
      1698       539  TIP3      H2             14.2194736473      -15.4696730741      -26.9938567372  SOLV      528             0.0000000000
      1699       540  TIP3      OH2            15.5585366298       -9.2172960473      -27.3498441055  SOLV      529             0.0000000000
      1700       540  TIP3      H1             15.1829628415       -9.1198723019      -28.2436525886  SOLV      529             0.0000000000
      1701       540  TIP3      H2             14.7575591260       -9.4028737922      -26.8099194800  SOLV      529             0.0000000000
      1702       541  TIP3      OH2            11.3226878854      -13.8192027113      -27.8726733203  SOLV      530             0.0000000000
      1703       541  TIP3      H1             10.6324243998      -14.0243473476      -28.5342860594  SOLV      530             0.0000000000
      1704       541  TIP3      H2             11.6987707806      -14.6979496873      -27.6602308929  SOLV      530             0.0000000000
      1705       542  TIP3      OH2             9.8800675485      -11.8577236641      -31.6127344207  SOLV      531             0.0000000000
      1706       542  TIP3      H1             10.8482062574      -11.8596009437      -31.6015334856  SOLV      531             0.0000000000
      1707       542  TIP3      H2              9.6904155192      -11.0982442414      -31.0392759178  SOLV      531             0.0000000000
      1708       543  TIP3      OH2            28.3795560957       -7.4535501046      -30.9349438332  SOLV      532             0.0000000000
      1709       543  TIP3      H1             28.4791214835       -8.3974935388      -30.6922844482  SOLV      532             0.0000000000
      1710       543  TIP3      H2             27.5928572357       -7.2162928206      -30.3905726214  SOLV      532             0.0000000000
      1711       544  TIP3      OH2            19.5616252811       -9.5153977291      -29.6715399992  SOLV      533             0.0000000000
      1712       544  TIP3      H1             19.5284787090       -8.5950497318      -29.3315086338  SOLV      533             0.0000000000
      1713       544  TIP3      H2             18.8629082468       -9.9387416598      -29.1225057802  SOLV      533             0.0000000000
      1714       545  TIP3      OH2            11.5162435118       -9.6257440735      -36.2497093848  SOLV      534             0.0000000000
      1715       545  TIP3      H1             12.1104673004       -9.7631030629      -35.4758771674  SOLV      534             0.0000000000
      1716       545  TIP3      H2             10.7274443854      -10.0822454147      -35.9152444721  SOLV      534             0.0000000000
      1717       546  TIP3      OH2            27.4571323276      -16.1792511515      -28.7348378313  SOLV      535             0.0000000000
      1718       546  TIP3      H1             26.4931317223      -16.2060069329      -28.8283910584  SOLV      535             0.0000000000
      1719       546  TIP3      H2             27.6091629996      -16.7977508414      -28.0063705444  SOLV      535             0.0000000000
      1720       547  TIP3      OH2            13.3683226726      -11.9990377262      -28.0811228596  SOLV      536             0.0000000000
      1721       547  TIP3      H1             13.8526934455      -12.1060538275      -27.2384731530  SOLV      536             0.0000000000
      1722       547  TIP3      H2             12.6243856214      -12.6256934607      -27.9647861618  SOLV      536             0.0000000000
      1723       548  TIP3      OH2            17.0894131009      -23.8390928428      -30.0722784197  SOLV      537             0.0000000000
      1724       548  TIP3      H1             16.1614440998      -23.9068202896      -30.3463367784  SOLV      537             0.0000000000
      1725       548  TIP3      H2             17.0798311812      -22.9644834335      -29.6431181648  SOLV      537             0.0000000000
      1726       549  TIP3      OH2            22.6589254398      -22.5995681992      -28.4906168595  SOLV      538             0.0000000000
      1727       549  TIP3      H1             23.3715448018      -22.7200205309      -27.8238313098  SOLV      538             0.0000000000
      1728       549  TIP3      H2             21.8673388795      -22.8619023503      -27.9783130381  SOLV      538             0.0000000000
      1729       550  TIP3      OH2            25.2445100838      -18.2716354702      -28.9486381676  SOLV      539             0.0000000000
      1730       550  TIP3      H1             24.6606466325      -18.3621164562      -28.1616724293  SOLV      539             0.0000000000
      1731       550  TIP3      H2             24.9314341065      -17.4312173383      -29.3361655788  SOLV      539             0.0000000000
      1732       551  TIP3      OH2            16.6797822765      -18.5399980646      -29.9711771424  SOLV      540             0.0000000000
      1733       551  TIP3      H1             16.2081594747      -18.3084184042      -29.1494066781  SOLV      540             0.0000000000
      1734       551  TIP3      H2             16.5240531489      -17.7296029403      -30.5132287982  SOLV      540             0.0000000000
      1735       552  TIP3      OH2            15.5382878619      -19.7804129233      -34.9161771099  SOLV      541             0.0000000000
      1736       552  TIP3      H1             14.6290098996      -20.1160859912      -34.7674886361  SOLV      541             0.0000000000
      1737       552  TIP3      H2             15.7737950320      -20.1512573529      -35.7754114157  SOLV      541             0.0000000000
      1738       553  TIP3      OH2            22.2051385530      -16.1360206505      -26.7312297730  SOLV      542             0.0000000000
      1739       553  TIP3      H1             22.0263941616      -16.8568397627      -26.0891479973  SOLV      542             0.0000000000
      1740       553  TIP3      H2             23.1354729200      -15.9346241228      -26.5268774104  SOLV      542             0.0000000000
      1741       554  TIP3      OH2            14.8412153496      -18.3104760327      -27.8995824472  SOLV      543             0.0000000000
      1742       554  TIP3      H1             15.2165198361      -17.6872175379      -27.2588647285  SOLV      543             0.0000000000
      1743       554  TIP3      H2             14.7598241615      -19.1261438570      -27.3690222652  SOLV      543             0.0000000000
      1744       555  TIP3      OH2            10.8990503563      -22.8796327177      -32.2089521385  SOLV      544             0.0000000000
      1745       555  TIP3      H1             11.4255936927      -22.4993664830      -31.4791949335  SOLV      544             0.0000000000
      1746       555  TIP3      H2             11.4581054825      -23.6360488357      -32.4746677718  SOLV      544             0.0000000000
      1747       556  TIP3      OH2            22.0292656520      -16.1907095064      -30.9694071911  SOLV      545             0.0000000000
      1748       556  TIP3      H1             22.2113256728      -16.9589385009      -31.5493036225  SOLV      545             0.0000000000
      1749       556  TIP3      H2             21.7736693194      -16.6657235011      -30.1492654831  SOLV      545             0.0000000000
      1750       557  TIP3      OH2            13.0685689399      -20.9947777711      -34.3010825259  SOLV      546             0.0000000000
      1751       557  TIP3      H1             12.1472300881      -20.7513590993      -34.5533957947  SOLV      546             0.0000000000
      1752       557  TIP3      H2             12.9679249952      -21.9502723947      -34.1831235324  SOLV      546             0.0000000000
      1753       558  TIP3      OH2            25.4958417794       -3.8525812620      -29.7880349651  SOLV      547             0.0000000000
      1754       558  TIP3      H1             25.5388140615       -3.5721918575      -30.7220354422  SOLV      547             0.0000000000
      1755       558  TIP3      H2             26.2689341761       -3.3728164284      -29.4237205339  SOLV      547             0.0000000000
      1756       559  TIP3      OH2            15.0259734415      -12.7805375406      -25.8145000691  SOLV      548             0.0000000000
      1757       559  TIP3      H1             15.8243363445      -12.4816297104      -25.3333232645  SOLV      548             0.0000000000
      1758       559  TIP3      H2             14.3746807920      -12.7684041709      -25.0865998503  SOLV      548             0.0000000000
      1759       560  TIP3      OH2            19.5053579961      -18.4178783879      -33.2565968029  SOLV      549             0.0000000000
      1760       560  TIP3      H1             20.4118408961      -18.6151385645      -33.5333399405  SOLV      549             0.0000000000
      1761       560  TIP3      H2             19.5355627879      -18.6789464453      -32.3185644985  SOLV      549             0.0000000000
      1762       561  TIP3      OH2            19.3860857589      -19.1848711323      -30.3828265286  SOLV      550             0.0000000000
      1763       561  TIP3      H1             18.4991559940      -18.8130760448      -30.2013479391  SOLV      550             0.0000000000
      1764       561  TIP3      H2             19.9808237198      -18.6047968136      -29.8677382604  SOLV      550             0.0000000000
      1765       562  TIP3      OH2            25.8143722649      -12.8999285951      -33.3918403121  SOLV      551             0.0000000000
      1766       562  TIP3      H1             25.4059268427      -12.4154101699      -34.1257687170  SOLV      551             0.0000000000
      1767       562  TIP3      H2             25.0682393844      -13.4745115066      -33.1300404215  SOLV      551             0.0000000000
      1768       563  TIP3      OH2            20.6704514499      -12.1992733150      -29.3906172981  SOLV      552             0.0000000000
      1769       563  TIP3      H1             21.1490524679      -12.3278610846      -28.5611140323  SOLV      552             0.0000000000
      1770       563  TIP3      H2             20.3484471336      -11.2854993796      -29.3152975943  SOLV      552             0.0000000000
      1771       564  TIP3      OH2            13.6938095267      -15.2760009116      -32.5478360619  SOLV      553             0.0000000000
      1772       564  TIP3      H1             14.5317006093      -15.5019864880      -32.9923357009  SOLV      553             0.0000000000
      1773       564  TIP3      H2             13.8412374515      -15.6940151510      -31.6831419194  SOLV      553             0.0000000000
      1774       565  TIP3      OH2            12.5379795708      -15.9525004751      -26.5044265375  SOLV      554             0.0000000000
      1775       565  TIP3      H1             12.7164279774      -16.0789468720      -25.5513696112  SOLV      554             0.0000000000
      1776       565  TIP3      H2             11.8339590920      -16.6061171282      -26.6527859629  SOLV      554             0.0000000000
      1777       566  TIP3      OH2            19.8185702951      -14.7693208450      -26.3221235202  SOLV      555             0.0000000000
      1778       566  TIP3      H1             19.2223895286      -15.3995595816      -26.7529373583  SOLV      555             0.0000000000
      1779       566  TIP3      H2             20.6943121041      -15.1222281241      -26.5924595927  SOLV      555             0.0000000000
      1780       567  TIP3      OH2            22.3041434820       -9.6196533540      -30.4424682234  SOLV      556             0.0000000000
      1781       567  TIP3      H1             21.3438693324       -9.5790786704      -30.2795619502  SOLV      556             0.0000000000
      1782       567  TIP3      H2             22.6354556948       -9.0995154703      -29.6777494431  SOLV      556             0.0000000000
      1783       568  TIP3      OH2            28.5615310788      -10.2692079783      -30.5005953387  SOLV      557             0.0000000000
      1784       568  TIP3      H1             27.5832855418      -10.2957249049      -30.4433695481  SOLV      557             0.0000000000
      1785       568  TIP3      H2             28.6947484713      -10.7321098813      -31.3620673190  SOLV      557             0.0000000000
      1786       569  TIP3      OH2            23.2711853037      -14.2561148424      -33.6265548147  SOLV      558             0.0000000000
      1787       569  TIP3      H1             22.3054584090      -14.4247644956      -33.5499850178  SOLV      558             0.0000000000
      1788       569  TIP3      H2             23.5666771400      -15.1524798705      -33.8946455057  SOLV      558             0.0000000000
      1789       570  TIP3      OH2            14.7669764731      -12.1894364306      -36.4203122296  SOLV      559             0.0000000000
      1790       570  TIP3      H1             14.6848576982      -11.2858262182      -36.8776536664  SOLV      559             0.0000000000
      1791       570  TIP3      H2             13.9288466368      -12.2319224935      -35.9745742966  SOLV      559             0.0000000000
      1792       571  TIP3      OH2            10.5028486826      -19.1309017988      -39.2913260100  SOLV      560             0.0000000000
      1793       571  TIP3      H1             10.5080295303      -18.1824590535      -39.4069956009  SOLV      560             0.0000000000
      1794       571  TIP3      H2              9.7597198317      -19.2780341818      -38.6754496478  SOLV      560             0.0000000000
      1795       572  TIP3      OH2            15.5913160658      -14.8587913093      -36.2428710736  SOLV      561             0.0000000000
      1796       572  TIP3      H1             15.4840327662      -14.4611434535      -36.7503186752  SOLV      561             0.0000000000
      1797       572  TIP3      H2             16.4854483670      -15.0380371458      -36.0889425643  SOLV      561             0.0000000000
      1798       573  TIP3      OH2            17.4031335032       -8.6917534539      -31.7038857639  SOLV      562             0.0000000000
      1799       573  TIP3      H1             17.8125189585       -7.9563737690      -32.2110489225  SOLV      562             0.0000000000
      1800       573  TIP3      H2             18.1718545410       -9.0212896903      -31.2089446883  SOLV      562             0.0000000000
      1801       574  TIP3      OH2            -0.1475969728      -24.0376280233       33.7119964602  SOLV      563             0.0000000000
      1802       574  TIP3      H1             -1.1046082591      -23.9774703314       33.8521415421  SOLV      563             0.0000000000
      1803       574  TIP3      H2              0.0593399230      -23.3255258509       33.0973112348  SOLV      563             0.0000000000
      1804       575  TIP3      OH2            21.2180181497      -12.3475428685      -32.0513551494  SOLV      564             0.0000000000
      1805       575  TIP3      H1             21.0434213940      -12.3469525031      -31.0827902819  SOLV      564             0.0000000000
      1806       575  TIP3      H2             22.0606118305      -12.8227611349      -32.0785923675  SOLV      564             0.0000000000
      1807       576  TIP3      OH2            23.6970374814       -7.0163656495      -31.6064937055  SOLV      565             0.0000000000
      1808       576  TIP3      H1             22.8619606050       -7.5172364764      -31.7123643116  SOLV      565             0.0000000000
      1809       576  TIP3      H2             23.6402600610       -6.3950558425      -32.3543464830  SOLV      565             0.0000000000
      1810       577  TIP3      OH2            14.5705910537      -20.8765364531      -26.4498528387  SOLV      566             0.0000000000
      1811       577  TIP3      H1             13.6027530992      -20.8564236237      -26.3236065165  SOLV      566             0.0000000000
      1812       577  TIP3      H2             14.8596002346      -21.4062820467      -25.6893174500  SOLV      566             0.0000000000
      1813       578  TIP3      OH2            11.7955768437      -10.0799649333      -30.1251339873  SOLV      567             0.0000000000
      1814       578  TIP3      H1             12.3550653668      -10.7244583329      -29.6550188047  SOLV      567             0.0000000000
      1815       578  TIP3      H2             11.9802360583       -9.2726377541      -29.6249199150  SOLV      567             0.0000000000
      1816       579  TIP3      OH2            12.3210816322      -16.1211081943      -38.4007102594  SOLV      568             0.0000000000
      1817       579  TIP3      H1             11.4951865664      -15.8725287383      -37.9191275248  SOLV      568             0.0000000000
      1818       579  TIP3      H2             11.9226216857      -16.2808491253      -39.2975518087  SOLV      568             0.0000000000
      1819       580  TIP3      OH2            23.0137481583      -20.0630413550      -29.7132542265  SOLV      569             0.0000000000
      1820       580  TIP3      H1             23.8918730070      -19.8604986187      -29.3599972842  SOLV      569             0.0000000000
      1821       580  TIP3      H2             22.8336178985      -20.9387926889      -29.3155859964  SOLV      569             0.0000000000
      1822       581  TIP3      OH2            21.3793613432      -17.7730379433      -28.8677065268  SOLV      570             0.0000000000
      1823       581  TIP3      H1             21.6666056242      -17.2781604334      -28.0720768505  SOLV      570             0.0000000000
      1824       581  TIP3      H2             21.9324202525      -18.5759314249      -28.8198471268  SOLV      570             0.0000000000
      1825       582  TIP3      OH2            27.8386027903      -19.1738190401      -29.9911142529  SOLV      571             0.0000000000
      1826       582  TIP3      H1             27.0676026488      -19.1822160122      -29.3984055282  SOLV      571             0.0000000000
      1827       582  TIP3      H2             27.7153817802      -18.2839656241      -30.3844027859  SOLV      571             0.0000000000
      1828       583  TIP3      OH2            23.9462576134      -16.8045983338      -34.6316454139  SOLV      572             0.0000000000
      1829       583  TIP3      H1             23.9719179701      -16.8374938513      -35.6087669937  SOLV      572             0.0000000000
      1830       583  TIP3      H2             24.6488146436      -17.4510825611      -34.4203074216  SOLV      572             0.0000000000
      1831       584  TIP3      OH2            14.3267259737      -24.5704886569      -30.4120580010  SOLV      573             0.0000000000
      1832       584  TIP3      H1             13.5992481475      -24.8337121547      -31.0099072231  SOLV      573             0.0000000000
      1833       584  TIP3      H2             14.2511962707      -25.2366093844      -29.6962580727  SOLV      573             0.0000000000
      1834       585  TIP3      OH2             9.9848873378      -12.5543248715      -36.6761906414  SOLV      574             0.0000000000
      1835       585  TIP3      H1              9.3089761811      -12.1909918129      -36.0827536335  SOLV      574             0.0000000000
      1836       585  TIP3      H2              9.8810045281      -11.9406736396      -37.4310256659  SOLV      574             0.0000000000
      1837       586  TIP3      OH2            11.7376985813       -6.8380420848      -25.8924155079  SOLV      575             0.0000000000
      1838       586  TIP3      H1             12.5830037989       -6.7861636126      -25.3880489909  SOLV      575             0.0000000000
      1839       586  TIP3      H2             11.5764291903       -7.7942499546      -25.8739630274  SOLV      575             0.0000000000
      1840       587  TIP3      OH2            16.4141074595       -7.3494712227      -25.4412248542  SOLV      576             0.0000000000
      1841       587  TIP3      H1             17.3720939158       -7.4387583128      -25.3454628842  SOLV      576             0.0000000000
      1842       587  TIP3      H2             16.2317665457       -7.9945573675      -26.1530663218  SOLV      576             0.0000000000
      1843       588  TIP3      OH2            22.9341476732       -8.2845483599      -28.1530914416  SOLV      577             0.0000000000
      1844       588  TIP3      H1             22.8273507871       -8.9481605523      -27.4320666759  SOLV      577             0.0000000000
      1845       588  TIP3      H2             23.6663778832       -7.7346279716      -27.8140365948  SOLV      577             0.0000000000
      1846       589  TIP3      OH2            12.9895099517      -12.8906483303      -23.9074655918  SOLV      578             0.0000000000
      1847       589  TIP3      H1             13.1269916228      -13.8505099975      -23.8170824070  SOLV      578             0.0000000000
      1848       589  TIP3      H2             12.1167429012      -12.8530502290      -24.3547193308  SOLV      578             0.0000000000
      1849       590  TIP3      OH2            19.0567835612      -12.0025337142      -26.1436640589  SOLV      579             0.0000000000
      1850       590  TIP3      H1             18.6788857562      -11.7786532474      -27.0185168791  SOLV      579             0.0000000000
      1851       590  TIP3      H2             19.3887351676      -12.9144034691      -26.2775645608  SOLV      579             0.0000000000
      1852       591  TIP3      OH2            23.8916569562      -11.9281879786      -30.1357081154  SOLV      580             0.0000000000
      1853       591  TIP3      H1             24.6950979574      -11.5211518883      -30.5167620920  SOLV      580             0.0000000000
      1854       591  TIP3      H2             23.2480126252      -11.2012418325      -30.2634977980  SOLV      580             0.0000000000
      1855       592  TIP3      OH2            14.2119893165      -15.5459971282      -24.0448065825  SOLV      581             0.0000000000
      1856       592  TIP3      H1             15.0254063563      -15.9831882388      -24.3253171914  SOLV      581             0.0000000000
      1857       592  TIP3      H2             14.4836347189      -15.1844814878      -23.1737379141  SOLV      581             0.0000000000
      1858       593  TIP3      OH2            17.4871197413      -16.7384169943      -27.4820946923  SOLV      582             0.0000000000
      1859       593  TIP3      H1             16.7460090736      -16.0975824402      -27.4840066728  SOLV      582             0.0000000000
      1860       593  TIP3      H2             18.0450479050      -16.3911352521      -28.2203212893  SOLV      582             0.0000000000
      1861       594  TIP3      OH2            22.7053749554      -12.6816726337      -26.1435097402  SOLV      583             0.0000000000
      1862       594  TIP3      H1             23.5800830119      -12.8947687012      -26.4946709550  SOLV      583             0.0000000000
      1863       594  TIP3      H2             22.6391566578      -13.3084804399      -25.4006114780  SOLV      583             0.0000000000
      1864       595  TIP3      OH2            18.7494652196      -18.7959286739      -26.1972280492  SOLV      584             0.0000000000
      1865       595  TIP3      H1             18.7922924463      -19.5781047087      -26.7835764274  SOLV      584             0.0000000000
      1866       595  TIP3      H2             18.3150775524      -18.1318261863      -26.7778368296  SOLV      584             0.0000000000
      1867       596  TIP3      OH2            18.7900797001      -20.9136403351      -28.1124516747  SOLV      585             0.0000000000
      1868       596  TIP3      H1             19.0811000447      -20.5081330975      -28.9518400791  SOLV      585             0.0000000000
      1869       596  TIP3      H2             17.8522882989      -21.1260771029      -28.3032371162  SOLV      585             0.0000000000
      1870       597  TIP3      OH2            18.9908519027      -15.6495548033      -29.4084907495  SOLV      586             0.0000000000
      1871       597  TIP3      H1             19.8827864037      -15.4441266753      -29.7158216782  SOLV      586             0.0000000000
      1872       597  TIP3      H2             18.4517972788      -14.9716738210      -29.8723462222  SOLV      586             0.0000000000
      1873       598  TIP3      OH2            24.9973861439      -15.8952043884      -25.5782195456  SOLV      587             0.0000000000
      1874       598  TIP3      H1             25.4221259577      -16.7517736010      -25.4287779365  SOLV      587             0.0000000000
      1875       598  TIP3      H2             25.7754276201      -15.3274208260      -25.7255127562  SOLV      587             0.0000000000
      1876       599  TIP3      OH2            25.2098627435      -13.4592578183      -28.2952790441  SOLV      588             0.0000000000
      1877       599  TIP3      H1             24.6424153402      -12.8832239855      -28.8573386049  SOLV      588             0.0000000000
      1878       599  TIP3      H2             26.0946050718      -13.2632380037      -28.6769434354  SOLV      588             0.0000000000
      1879       600  TIP3      OH2            17.5309482909      -17.7493901252      -23.8635416700  SOLV      589             0.0000000000
      1880       600  TIP3      H1             16.8649577820      -18.4467335843      -23.7007558160  SOLV      589             0.0000000000
      1881       600  TIP3      H2             17.8753891212      -18.0126903667      -24.7414999343  SOLV      589             0.0000000000
      1882       601  TIP3      OH2            20.0994104673      -23.3116904086      -27.4121587039  SOLV      590             0.0000000000
      1883       601  TIP3      H1             19.6055645734      -22.5034591540      -27.6621072121  SOLV      590             0.0000000000
      1884       601  TIP3      H2             19.4260305775      -24.0085133349      -27.5453228595  SOLV      590             0.0000000000
      1885       602  TIP3      OH2            21.3855188424      -18.3107241435      -25.2668324382  SOLV      591             0.0000000000
      1886       602  TIP3      H1             21.2767443239      -18.4398780626      -24.3088082412  SOLV      591             0.0000000000
      1887       602  TIP3      H2             20.4824780957      -18.5413547101      -25.5706626952  SOLV      591             0.0000000000
      1888       603  TIP3      OH2            23.7170158433      -18.7861498161      -26.7751410964  SOLV      592             0.0000000000
      1889       603  TIP3      H1             22.9821607044      -18.7819554939      -26.1306537791  SOLV      592             0.0000000000
      1890       603  TIP3      H2             24.4724955918      -19.0737848789      -26.2181604933  SOLV      592             0.0000000000
      1891       604  TIP3      OH2            25.9206191540      -19.3891540892      -25.2374245766  SOLV      593             0.0000000000
      1892       604  TIP3      H1             26.1814411704      -20.3141909661      -25.0532918455  SOLV      593             0.0000000000
      1893       604  TIP3      H2             25.9471810421      -18.9776156957      -24.3481193487  SOLV      593             0.0000000000
      1894       605  TIP3      OH2            15.9249600477      -19.9551915797      -23.2961282837  SOLV      594             0.0000000000
      1895       605  TIP3      H1             15.9934437019      -20.8720890302      -23.6244289622  SOLV      594             0.0000000000
      1896       605  TIP3      H2             16.3161423513      -20.0508809341      -22.4038398360  SOLV      594             0.0000000000
      1897       606  TIP3      OH2            20.6900545009      -23.1226912459      -24.7111272332  SOLV      595             0.0000000000
      1898       606  TIP3      H1             21.4690945196      -23.7264217134      -24.7328276091  SOLV      595             0.0000000000
      1899       606  TIP3      H2             20.4418734214      -23.1623889457      -25.6583077025  SOLV      595             0.0000000000
      1900       607  TIP3      OH2            21.6880999744      -21.0564259136      -23.2022821344  SOLV      596             0.0000000000
      1901       607  TIP3      H1             21.4205691480      -21.7483843129      -23.8443444783  SOLV      596             0.0000000000
      1902       607  TIP3      H2             20.9207040592      -20.4463052235      -23.2498458311  SOLV      596             0.0000000000
      1903       608  TIP3      OH2             7.7184666123       -8.9318572709      -35.9240604441  SOLV      597             0.0000000000
      1904       608  TIP3      H1              7.1058571090       -9.5628548726      -36.3627952367  SOLV      597             0.0000000000
      1905       608  TIP3      H2              8.1904065319       -9.5387252383      -35.3136674397  SOLV      597             0.0000000000
      1906       609  TIP3      OH2             9.3204003256      -10.3613474659      -34.1978493913  SOLV      598             0.0000000000
      1907       609  TIP3      H1              9.1411827399      -11.0410563564      -33.5244894388  SOLV      598             0.0000000000
      1908       609  TIP3      H2              9.8165265491       -9.7241509637      -33.6458487681  SOLV      598             0.0000000000
      1909       610  TIP3      OH2            26.8155399372       -6.1816166604      -32.9378970012  SOLV      599             0.0000000000
      1910       610  TIP3      H1             26.3123454560       -6.9994742775      -33.1444899750  SOLV      599             0.0000000000
      1911       610  TIP3      H2             27.2538284799       -6.4911815395      -32.1224142910  SOLV      599             0.0000000000
      1912       611  TIP3      OH2            27.0888366854       -9.2847818712      -27.6381195699  SOLV      600             0.0000000000
      1913       611  TIP3      H1             26.4509864699       -9.2072940480      -26.8969737495  SOLV      600             0.0000000000
      1914       611  TIP3      H2             27.5959448544       -8.4513277319      -27.5470338944  SOLV      600             0.0000000000
      1915       612  TIP3      OH2            25.5294491182       -8.5939350727      -32.9287279894  SOLV      601             0.0000000000
      1916       612  TIP3      H1             24.8266355528       -8.2312192930      -32.3517586784  SOLV      601             0.0000000000
      1917       612  TIP3      H2             25.0126682836       -9.1137281583      -33.5848503867  SOLV      601             0.0000000000
      1918       613  TIP3      OH2            11.0758001183      -16.2571165770      -30.3604057399  SOLV      602             0.0000000000
      1919       613  TIP3      H1             11.0364630093      -16.6162180591      -31.2694679488  SOLV      602             0.0000000000
      1920       613  TIP3      H2             12.0485910766      -16.2502517630      -30.2026436587  SOLV      602             0.0000000000
      1921       614  TIP3      OH2            27.6461094333      -12.7781527116      -29.3793965251  SOLV      603             0.0000000000
      1922       614  TIP3      H1             28.3816410263      -13.4312558427      -29.3343284592  SOLV      603             0.0000000000
      1923       614  TIP3      H2             28.0461489685      -12.0634709154      -29.8981144020  SOLV      603             0.0000000000
      1924       615  TIP3      OH2            29.6195263371      -14.5335406279      -28.8674101295  SOLV      604             0.0000000000
      1925       615  TIP3      H1             28.8761994109      -15.1771301458      -28.7947673637  SOLV      604             0.0000000000
      1926       615  TIP3      H2             30.1165377094      -14.7848202264      -28.0475726272  SOLV      604             0.0000000000
      1927       616  TIP3      OH2            26.8956188448      -17.0018221278      -31.7120883776  SOLV      605             0.0000000000
      1928       616  TIP3      H1             26.2792529391      -16.5207409524      -31.1327371547  SOLV      605             0.0000000000
      1929       616  TIP3      H2             27.4194795076      -16.2609837267      -32.0761114104  SOLV      605             0.0000000000
      1930       617  TIP3      OH2            13.2620682741      -19.4366617102      -23.6648247467  SOLV      606             0.0000000000
      1931       617  TIP3      H1             14.2410775982      -19.4658514479      -23.5962518871  SOLV      606             0.0000000000
      1932       617  TIP3      H2             13.0379710659      -20.3021965566      -23.2707305944  SOLV      606             0.0000000000
      1933       618  TIP3      OH2            12.7521468387      -22.2693077191      -30.2322079603  SOLV      607             0.0000000000
      1934       618  TIP3      H1             13.3568137944      -23.0293812416      -30.1461719594  SOLV      607             0.0000000000
      1935       618  TIP3      H2             13.3922427648      -21.5410708398      -30.3420156833  SOLV      607             0.0000000000
      1936       619  TIP3      OH2            10.8561329616      -19.7502162807      -29.6233872536  SOLV      608             0.0000000000
      1937       619  TIP3      H1             11.3893836657      -19.7506576085      -30.4411092261  SOLV      608             0.0000000000
      1938       619  TIP3      H2             11.1533752425      -18.9450253935      -29.1841234644  SOLV      608             0.0000000000
      1939       620  TIP3      OH2            12.9439336858      -23.9063974671      -26.4625506680  SOLV      609             0.0000000000
      1940       620  TIP3      H1             12.4301027872      -23.9465610449      -25.6407307168  SOLV      609             0.0000000000
      1941       620  TIP3      H2             12.2762906779      -23.5372288615      -27.0754651234  SOLV      609             0.0000000000
      1942       621  TIP3      OH2            13.3428851681       -9.6307067715      -25.7382928215  SOLV      610             0.0000000000
      1943       621  TIP3      H1             12.3946799608       -9.8449656484      -25.8251451622  SOLV      610             0.0000000000
      1944       621  TIP3      H2             13.4887792514       -9.7368115814      -24.7901331192  SOLV      610             0.0000000000
      1945       622  TIP3      OH2            15.1495300740       -9.2856377775      -30.2463205084  SOLV      611             0.0000000000
      1946       622  TIP3      H1             14.6840229794       -8.5106828213      -30.6242530780  SOLV      611             0.0000000000
      1947       622  TIP3      H2             16.0182644916       -9.1441221351      -30.6805179078  SOLV      611             0.0000000000
      1948       623  TIP3      OH2            19.5269400866       -6.8601261439      -28.8756093707  SOLV      612             0.0000000000
      1949       623  TIP3      H1             19.9417008067       -6.8877412932      -27.9837460653  SOLV      612             0.0000000000
      1950       623  TIP3      H2             20.1650367572       -6.2879730422      -29.3510325361  SOLV      612             0.0000000000
      1951       624  TIP3      OH2            21.3386900566       -5.2779671321      -30.2118067798  SOLV      613             0.0000000000
      1952       624  TIP3      H1             22.0437808918       -5.8682771024      -30.5112487706  SOLV      613             0.0000000000
      1953       624  TIP3      H2             21.8403291901       -4.7113593442      -29.5813713386  SOLV      613             0.0000000000
      1954       625  TIP3      OH2            11.8671503709       -6.7492808382      -29.9387687325  SOLV      614             0.0000000000
      1955       625  TIP3      H1             10.9542616109       -6.4378693320      -30.1302032945  SOLV      614             0.0000000000
      1956       625  TIP3      H2             12.0830376396       -6.1931494052      -29.1736252911  SOLV      614             0.0000000000
      1957       626  TIP3      OH2            14.2373327786       -6.9682778596      -31.3712011493  SOLV      615             0.0000000000
      1958       626  TIP3      H1             13.3594230002       -6.8364141518      -30.9515818268  SOLV      615             0.0000000000
      1959       626  TIP3      H2             14.0856208688       -6.6093607513      -32.2677707136  SOLV      615             0.0000000000
      1960       627  TIP3      OH2            18.4925131574       -6.7482336386      -33.2967218171  SOLV      616             0.0000000000
      1961       627  TIP3      H1             17.8113370101       -6.6310054237      -33.9889805358  SOLV      616             0.0000000000
      1962       627  TIP3      H2             18.6141324698       -5.8277441477      -32.9849307812  SOLV      616             0.0000000000
      1963       628  TIP3      OH2            21.1883605796       -7.3594759068      -32.8945738393  SOLV      617             0.0000000000
      1964       628  TIP3      H1             20.2341559889       -7.1532485150      -32.8290972886  SOLV      617             0.0000000000
      1965       628  TIP3      H2             21.3181633981       -7.2350045043      -33.8599899544  SOLV      617             0.0000000000
      1966       629  TIP3      OH2            23.3519886488       -5.1692880543      -33.7693407247  SOLV      618             0.0000000000
      1967       629  TIP3      H1             22.4604266865       -5.0894923799      -33.3933531006  SOLV      618             0.0000000000
      1968       629  TIP3      H2             23.1553883908       -5.8054670352      -34.4918378447  SOLV      618             0.0000000000
      1969       630  TIP3      OH2            11.0210143332       -8.8320354636      -32.5329836718  SOLV      619             0.0000000000
      1970       630  TIP3      H1             11.2731837686       -9.1257963639      -31.6307130785  SOLV      619             0.0000000000
      1971       630  TIP3      H2             11.7505736079       -9.2496923452      -33.0427476202  SOLV      619             0.0000000000
      1972       631  TIP3      OH2            12.9604185396      -10.0840183154      -33.9857504542  SOLV      620             0.0000000000
      1973       631  TIP3      H1             13.0944076813      -10.9133098644      -33.4682301837  SOLV      620             0.0000000000
      1974       631  TIP3      H2             13.8730115079       -9.7135638767      -33.9714322619  SOLV      620             0.0000000000
      1975       632  TIP3      OH2            15.5859533797       -9.2089147031      -33.7716566886  SOLV      621             0.0000000000
      1976       632  TIP3      H1             15.9184983389      -10.1285981385      -33.8294582220  SOLV      621             0.0000000000
      1977       632  TIP3      H2             16.1084654080       -8.9067643063      -33.0016798554  SOLV      621             0.0000000000
      1978       633  TIP3      OH2             8.3846739477      -10.9374573046      -38.2612885327  SOLV      622             0.0000000000
      1979       633  TIP3      H1              7.8189185461      -11.4210290969      -38.8733094527  SOLV      622             0.0000000000
      1980       633  TIP3      H2              8.5145175877      -10.0919331307      -38.7016793026  SOLV      622             0.0000000000
      1981       634  TIP3      OH2            15.9279055108      -22.7090826817      -24.0226115796  SOLV      623             0.0000000000
      1982       634  TIP3      H1             15.5553649389      -23.4011667966      -23.4490994682  SOLV      623             0.0000000000
      1983       634  TIP3      H2             16.8644923661      -22.7141670528      -23.7216047493  SOLV      623             0.0000000000
      1984       635  TIP3      OH2            18.4352083489      -22.7085334498      -22.8410116949  SOLV      624             0.0000000000
      1985       635  TIP3      H1             19.2454862563      -22.8668077927      -23.3695251408  SOLV      624             0.0000000000
      1986       635  TIP3      H2             18.4526488777      -23.4609203015      -22.2236308378  SOLV      624             0.0000000000
      1987       636  TIP3      OH2            26.8263108564      -22.0390223922      -24.8187456046  SOLV      625             0.0000000000
      1988       636  TIP3      H1             26.9029058472      -22.3500611621      -23.8957650708  SOLV      625             0.0000000000
      1989       636  TIP3      H2             27.6238029729      -22.4383105019      -25.2137125120  SOLV      625             0.0000000000
      1990       637  TIP3      OH2            26.0023890375       -6.5442405949      -29.9846306022  SOLV      626             0.0000000000
      1991       637  TIP3      H1             25.1651121286       -6.8075915946      -30.4157931036  SOLV      626             0.0000000000
      1992       637  TIP3      H2             25.8306041060       -5.5937750380      -29.8162874040  SOLV      626             0.0000000000
      1993       638  TIP3      OH2            29.1817441162      -11.4157177931      -32.8496028330  SOLV      627             0.0000000000
      1994       638  TIP3      H1             28.6978155850      -11.1963140226      -33.6502676676  SOLV      627             0.0000000000
      1995       638  TIP3      H2             29.9961484969      -11.8331060564      -33.2214661968  SOLV      627             0.0000000000
      1996       639  TIP3      OH2            29.4951339133       -4.2395437868      -30.8023820362  SOLV      628             0.0000000000
      1997       639  TIP3      H1             30.4383769806       -4.3780853447      -30.6486055644  SOLV      628             0.0000000000
      1998       639  TIP3      H2             29.2311148969       -5.1078827244      -31.1428279603  SOLV      628             0.0000000000
      1999       640  TIP3      OH2            30.7857882584       -6.6165798540      -31.8508342884  SOLV      629             0.0000000000
      2000       640  TIP3      H1             29.8686202718       -6.9311457273      -31.6998688990  SOLV      629             0.0000000000
      2001       640  TIP3      H2             31.2542503132       -7.4728989019      -31.7951343477  SOLV      629             0.0000000000
      2002       641  TIP3      OH2           -36.8287657355       -5.1479601082      -21.6406974129  SOLV      630             0.0000000000
      2003       641  TIP3      H1            -36.4282795445       -5.1582209082      -20.7438377250  SOLV      630             0.0000000000
      2004       641  TIP3      H2            -36.8232657669       -6.0902150946      -21.8506224345  SOLV      630             0.0000000000
      2005       642  TIP3      OH2           -34.1663993120       -2.0289156619      -24.3643839209  SOLV      631             0.0000000000
      2006       642  TIP3      H1            -34.2570411776       -2.6278984535      -23.5989876161  SOLV      631             0.0000000000
      2007       642  TIP3      H2            -33.8597264190       -1.2099288657      -23.9285988456  SOLV      631             0.0000000000
      2008       643  TIP3      OH2           -37.4955123857        3.5412070521      -25.3479664079  SOLV      632             0.0000000000
      2009       643  TIP3      H1            -36.8806007337        2.7778686635      -25.4335253105  SOLV      632             0.0000000000
      2010       643  TIP3      H2            -37.7437798541        3.4740465983      -24.4171055824  SOLV      632             0.0000000000
      2011       644  TIP3      OH2           -38.6779311633       -2.6301321376      -20.5642837570  SOLV      633             0.0000000000
      2012       644  TIP3      H1            -38.7807560782       -2.5850409794      -21.5264836924  SOLV      633             0.0000000000
      2013       644  TIP3      H2            -37.7482573964       -2.3444801534      -20.4410906078  SOLV      633             0.0000000000
      2014       645  TIP3      OH2           -28.6070522534       -9.4984945394      -21.1118701632  SOLV      634             0.0000000000
      2015       645  TIP3      H1            -28.3048769556       -8.6707356393      -20.6860533367  SOLV      634             0.0000000000
      2016       645  TIP3      H2            -28.3933900243       -9.3196197458      -22.0448039176  SOLV      634             0.0000000000
      2017       646  TIP3      OH2           -34.7119324461       -7.8646363625      -20.6715956724  SOLV      635             0.0000000000
      2018       646  TIP3      H1            -34.6967173509       -8.5601268814      -19.9885608869  SOLV      635             0.0000000000
      2019       646  TIP3      H2            -34.7352243518       -8.3657468995      -21.4972935366  SOLV      635             0.0000000000
      2020       647  TIP3      OH2           -27.8538380368       -7.3845390969      -19.4352770409  SOLV      636             0.0000000000
      2021       647  TIP3      H1            -28.7093801589       -6.9285367672      -19.5875424263  SOLV      636             0.0000000000
      2022       647  TIP3      H2            -27.5891062925       -6.9879322693      -18.5849972162  SOLV      636             0.0000000000
      2023       648  TIP3      OH2           -40.5135436025       -3.5038767784      -18.8566823551  SOLV      637             0.0000000000
      2024       648  TIP3      H1            -40.9333544071       -2.6693056313      -18.6442895994  SOLV      637             0.0000000000
      2025       648  TIP3      H2            -39.8675917435       -3.2199562150      -19.5459500275  SOLV      637             0.0000000000
      2026       649  TIP3      OH2           -33.7520911027        0.5106167624      -23.2070262653  SOLV      638             0.0000000000
      2027       649  TIP3      H1            -34.6491257461        0.4563503233      -22.8064021295  SOLV      638             0.0000000000
      2028       649  TIP3      H2            -33.7862523719        1.3973159131      -23.6223167306  SOLV      638             0.0000000000
      2029       650  TIP3      OH2           -30.6393773949      -10.4727863487      -19.4470877008  SOLV      639             0.0000000000
      2030       650  TIP3      H1            -31.4692880886      -10.0570388521      -19.7192070144  SOLV      639             0.0000000000
      2031       650  TIP3      H2            -30.0301482231      -10.1976958658      -20.1652506247  SOLV      639             0.0000000000
      2032       651  TIP3      OH2           -36.0474167724        1.3398061914      -26.0467159048  SOLV      640             0.0000000000
      2033       651  TIP3      H1            -35.7387214451        0.4412605651      -25.8103220195  SOLV      640             0.0000000000
      2034       651  TIP3      H2            -36.5025167550        1.1035788216      -26.8792239742  SOLV      640             0.0000000000
      2035       652  TIP3      OH2           -35.2405716916       -1.2065080280      -26.7015717233  SOLV      641             0.0000000000
      2036       652  TIP3      H1            -35.2336086454       -2.0525995697      -27.1906809195  SOLV      641             0.0000000000
      2037       652  TIP3      H2            -34.8285263901       -1.5026327225      -25.8578757131  SOLV      641             0.0000000000
      2038       653  TIP3      OH2           -31.3855548338       -0.3732578382      -19.6954771703  SOLV      642             0.0000000000
      2039       653  TIP3      H1            -31.4812798332       -1.1433618258      -20.2952022304  SOLV      642             0.0000000000
      2040       653  TIP3      H2            -31.5395036012        0.3782091259      -20.3085451847  SOLV      642             0.0000000000
      2041       654  TIP3      OH2           -29.4337369097       -4.0164465859      -21.2582090152  SOLV      643             0.0000000000
      2042       654  TIP3      H1            -30.2684099217       -3.4998754721      -21.2063446855  SOLV      643             0.0000000000
      2043       654  TIP3      H2            -29.1174907201       -3.7435336163      -22.1452792097  SOLV      643             0.0000000000
      2044       655  TIP3      OH2           -32.6518452816       -5.2239784775      -18.2578975493  SOLV      644             0.0000000000
      2045       655  TIP3      H1            -32.6615279145       -4.4296018058      -17.6885766709  SOLV      644             0.0000000000
      2046       655  TIP3      H2            -33.5216578202       -5.1436263739      -18.6962032857  SOLV      644             0.0000000000
      2047       656  TIP3      OH2           -36.1274322825        0.4586227348      -21.8935906398  SOLV      645             0.0000000000
      2048       656  TIP3      H1            -36.0288802573        1.2081293427      -21.2768790057  SOLV      645             0.0000000000
      2049       656  TIP3      H2            -36.1758916996       -0.3073045007      -21.2853490680  SOLV      645             0.0000000000
      2050       657  TIP3      OH2           -40.0201293453       -0.1489620524      -16.8423649616  SOLV      646             0.0000000000
      2051       657  TIP3      H1            -40.4132375802       -0.0609151129      -15.9443306800  SOLV      646             0.0000000000
      2052       657  TIP3      H2            -40.7108917125       -0.6552760834      -17.2791037606  SOLV      646             0.0000000000
      2053       658  TIP3      OH2           -29.0207665728        2.9350069218      -19.3811561467  SOLV      647             0.0000000000
      2054       658  TIP3      H1            -29.0229926378        2.0085519663      -19.0852052414  SOLV      647             0.0000000000
      2055       658  TIP3      H2            -29.6896915972        3.3195239830      -18.7831279310  SOLV      647             0.0000000000
      2056       659  TIP3      OH2           -37.8386873863        0.9083787446      -17.9946149201  SOLV      648             0.0000000000
      2057       659  TIP3      H1            -37.8328174097        1.8185474431      -17.6414441164  SOLV      648             0.0000000000
      2058       659  TIP3      H2            -38.6321836664        0.5354855296      -17.5399169813  SOLV      648             0.0000000000
      2059       660  TIP3      OH2           -30.0967773181       -5.6596670982      -16.4390954760  SOLV      649             0.0000000000
      2060       660  TIP3      H1            -30.9565025670       -5.5662979083      -16.8740910306  SOLV      649             0.0000000000
      2061       660  TIP3      H2            -29.9481458841       -6.6241930630      -16.5090793635  SOLV      649             0.0000000000
      2062       661  TIP3      OH2           -34.8278500435      -11.8085705457      -16.2646984781  SOLV      650             0.0000000000
      2063       661  TIP3      H1            -34.3150268803      -12.0078164138      -15.4727352181  SOLV      650             0.0000000000
      2064       661  TIP3      H2            -35.7001733277      -12.1880420819      -16.0503634096  SOLV      650             0.0000000000
      2065       662  TIP3      OH2           -32.3880470696       -7.8311208404      -17.2389417295  SOLV      651             0.0000000000
      2066       662  TIP3      H1            -32.9282738535       -7.9127618032      -16.4186072646  SOLV      651             0.0000000000
      2067       662  TIP3      H2            -32.6958792462       -6.9796807208      -17.6036485049  SOLV      651             0.0000000000
      2068       663  TIP3      OH2           -35.2912503682       -5.6785978791      -14.8802949479  SOLV      652             0.0000000000
      2069       663  TIP3      H1            -35.4852879847       -6.3998817604      -14.2447503968  SOLV      652             0.0000000000
      2070       663  TIP3      H2            -34.3602737535       -5.4898552538      -14.6582710161  SOLV      652             0.0000000000
      2071       664  TIP3      OH2           -35.4159440643       -5.6081697266      -19.3881022489  SOLV      653             0.0000000000
      2072       664  TIP3      H1            -35.0679296823       -6.3734159917      -19.9009508758  SOLV      653             0.0000000000
      2073       664  TIP3      H2            -35.6698101193       -6.0922263948      -18.5645868619  SOLV      653             0.0000000000
      2074       665  TIP3      OH2           -32.3983704951        7.1823975030      -18.4917832633  SOLV      654             0.0000000000
      2075       665  TIP3      H1            -32.0991704390        6.8679152212      -19.3719358077  SOLV      654             0.0000000000
      2076       665  TIP3      H2            -31.5806648993        6.9185435336      -17.9939540081  SOLV      654             0.0000000000
      2077       666  TIP3      OH2           -31.7392409898       -2.5195668764      -21.3764212010  SOLV      655             0.0000000000
      2078       666  TIP3      H1            -31.4935455023       -2.0135324844      -22.1813164982  SOLV      655             0.0000000000
      2079       666  TIP3      H2            -32.6398046340       -2.8409213316      -21.5896078330  SOLV      655             0.0000000000
      2080       667  TIP3      OH2           -36.6815263932       -1.7644741996      -17.6402136534  SOLV      656             0.0000000000
      2081       667  TIP3      H1            -36.3315148550       -2.0056859083      -16.7700026303  SOLV      656             0.0000000000
      2082       667  TIP3      H2            -37.1189167414       -0.9168555618      -17.4660387461  SOLV      656             0.0000000000
      2083       668  TIP3      OH2           -37.5849607970       -4.1477088768      -14.4412059698  SOLV      657             0.0000000000
      2084       668  TIP3      H1            -38.3479634141       -4.7229301733      -14.6602096310  SOLV      657             0.0000000000
      2085       668  TIP3      H2            -36.8296765742       -4.6690215737      -14.7879209103  SOLV      657             0.0000000000
      2086       669  TIP3      OH2           -35.1381825111        0.8786279390      -18.6893588466  SOLV      658             0.0000000000
      2087       669  TIP3      H1            -36.1020598758        0.7972490640      -18.5504768973  SOLV      658             0.0000000000
      2088       669  TIP3      H2            -34.8816587499        1.4144795146      -17.9155133065  SOLV      658             0.0000000000
      2089       670  TIP3      OH2           -28.8900521007        0.1119040980      -18.7673406908  SOLV      659             0.0000000000
      2090       670  TIP3      H1            -29.8687966370        0.0937074151      -18.8682548247  SOLV      659             0.0000000000
      2091       670  TIP3      H2            -28.6237836548       -0.1423504023      -19.6797084446  SOLV      659             0.0000000000
      2092       671  TIP3      OH2           -34.2756174184       -3.5855585632      -22.0765402603  SOLV      660             0.0000000000
      2093       671  TIP3      H1            -35.1780544410       -3.9183843973      -21.9218361771  SOLV      660             0.0000000000
      2094       671  TIP3      H2            -33.8596192402       -4.3840591099      -22.4800390660  SOLV      660             0.0000000000
      2095       672  TIP3      OH2           -39.8691468955        1.7519775003      -19.8641593536  SOLV      661             0.0000000000
      2096       672  TIP3      H1            -39.3093710266        2.2933321585      -20.4565878568  SOLV      661             0.0000000000
      2097       672  TIP3      H2            -39.2055013675        1.1669485609      -19.4588055927  SOLV      661             0.0000000000
      2098       673  TIP3      OH2           -36.0604209190       -1.8536048030      -20.3025559936  SOLV      662             0.0000000000
      2099       673  TIP3      H1            -36.1686733468       -1.8625266958      -19.3223309140  SOLV      662             0.0000000000
      2100       673  TIP3      H2            -35.2171060153       -2.3195899613      -20.4052856702  SOLV      662             0.0000000000
      2101       674  TIP3      OH2           -33.5296415420        3.4911013932      -19.8999298102  SOLV      663             0.0000000000
      2102       674  TIP3      H1            -34.3879458153        3.0268909155      -19.8407607701  SOLV      663             0.0000000000
      2103       674  TIP3      H2            -33.7602886875        4.1877368915      -20.5491024176  SOLV      663             0.0000000000
      2104       675  TIP3      OH2           -34.4741537302       -9.6818558922      -18.0506710881  SOLV      664             0.0000000000
      2105       675  TIP3      H1            -33.7182163136       -9.2906708587      -17.5883025820  SOLV      664             0.0000000000
      2106       675  TIP3      H2            -34.6643817653      -10.4644363114      -17.4911882075  SOLV      664             0.0000000000
      2107       676  TIP3      OH2           -35.7701207292       -7.0733606523      -17.2031864874  SOLV      665             0.0000000000
      2108       676  TIP3      H1            -35.6501443814       -6.6548425711      -16.3265525499  SOLV      665             0.0000000000
      2109       676  TIP3      H2            -35.6322469145       -8.0139979738      -17.0208500357  SOLV      665             0.0000000000
      2110       677  TIP3      OH2           -29.7466880634       -8.3383218581      -17.2341461243  SOLV      666             0.0000000000
      2111       677  TIP3      H1            -30.7279838564       -8.3407970344      -17.1717387370  SOLV      666             0.0000000000
      2112       677  TIP3      H2            -29.6262846899       -8.6269752395      -18.1468039331  SOLV      666             0.0000000000
      2113       678  TIP3      OH2           -33.0961590453       -5.7277308788      -23.2594348909  SOLV      667             0.0000000000
      2114       678  TIP3      H1            -33.4380958239       -6.5623000128      -23.6162175348  SOLV      667             0.0000000000
      2115       678  TIP3      H2            -32.3101318238       -6.0747644013      -22.7982085072  SOLV      667             0.0000000000
      2116       679  TIP3      OH2           -33.5374485273        3.1947967986      -23.9202380163  SOLV      668             0.0000000000
      2117       679  TIP3      H1            -33.9645702085        3.8135208524      -24.5536931333  SOLV      668             0.0000000000
      2118       679  TIP3      H2            -32.5903238267        3.3830039690      -24.1097205760  SOLV      668             0.0000000000
      2119       680  TIP3      OH2           -39.8661517054        2.9689776546      -13.9264962852  SOLV      669             0.0000000000
      2120       680  TIP3      H1            -40.2742598080        2.6656914220      -13.0966907776  SOLV      669             0.0000000000
      2121       680  TIP3      H2            -40.6330441659        3.2594157858      -14.4306229691  SOLV      669             0.0000000000
      2122       681  TIP3      OH2           -34.6907529432        2.2233002522      -16.2709381316  SOLV      670             0.0000000000
      2123       681  TIP3      H1            -34.3509116990        1.4821581809      -15.7529227694  SOLV      670             0.0000000000
      2124       681  TIP3      H2            -33.9922383163        2.8892660046      -16.0909611018  SOLV      670             0.0000000000
      2125       682  TIP3      OH2           -38.1504118558       -1.5016805221      -14.6262093244  SOLV      671             0.0000000000
      2126       682  TIP3      H1            -38.7606758380       -1.6868551904      -15.3464882629  SOLV      671             0.0000000000
      2127       682  TIP3      H2            -37.7287412846       -2.3799107802      -14.5016406843  SOLV      671             0.0000000000
      2128       683  TIP3      OH2           -33.5294905200       -1.4550727436      -18.3372492631  SOLV      672             0.0000000000
      2129       683  TIP3      H1            -32.7451689133       -1.0295458099      -18.7367029307  SOLV      672             0.0000000000
      2130       683  TIP3      H2            -34.2050496968       -0.7670175828      -18.4926098331  SOLV      672             0.0000000000
      2131       684  TIP3      OH2           -39.7512226360       -5.7607699462      -15.1706194443  SOLV      673             0.0000000000
      2132       684  TIP3      H1            -40.6995391766       -5.5727839770      -15.1569856368  SOLV      673             0.0000000000
      2133       684  TIP3      H2            -39.5180887281       -5.7253407910      -16.1202726748  SOLV      673             0.0000000000
      2134       685  TIP3      OH2           -34.8035363161       -2.2443788392      -14.4843939284  SOLV      674             0.0000000000
      2135       685  TIP3      H1            -33.8993651904       -2.4632816660      -14.7245312737  SOLV      674             0.0000000000
      2136       685  TIP3      H2            -34.9571486458       -2.8196647787      -13.7175000287  SOLV      674             0.0000000000
      2137       686  TIP3      OH2           -38.6367703388       -8.3119198142      -14.3265613816  SOLV      675             0.0000000000
      2138       686  TIP3      H1            -38.7498293608       -9.1777204741      -14.7371851614  SOLV      675             0.0000000000
      2139       686  TIP3      H2            -39.1041399184       -7.7507842566      -14.9734102423  SOLV      675             0.0000000000
      2140       687  TIP3      OH2           -38.5277192135       -5.2830022281      -17.8408141650  SOLV      676             0.0000000000
      2141       687  TIP3      H1            -37.6455115441       -5.0621447533      -18.1728227689  SOLV      676             0.0000000000
      2142       687  TIP3      H2            -39.0916940424       -4.6102192250      -18.2633007603  SOLV      676             0.0000000000
      2143       688  TIP3      OH2           -32.6796135918       -5.4827427134      -13.8257037028  SOLV      677             0.0000000000
      2144       688  TIP3      H1            -32.1688539496       -6.2878680100      -13.6514791311  SOLV      677             0.0000000000
      2145       688  TIP3      H2            -32.0036851775       -4.8839348031      -14.1733259583  SOLV      677             0.0000000000
      2146       689  TIP3      OH2           -32.2170275919       -2.9800490367      -16.5067043235  SOLV      678             0.0000000000
      2147       689  TIP3      H1            -32.8200780309       -2.4269359337      -17.0564304819  SOLV      678             0.0000000000
      2148       689  TIP3      H2            -31.3495686965       -2.7365366885      -16.9028923897  SOLV      678             0.0000000000
      2149       690  TIP3      OH2           -39.9045176924       -7.2479810676      -11.9907447697  SOLV      679             0.0000000000
      2150       690  TIP3      H1            -40.6731195903       -7.8430063626      -11.9051771143  SOLV      679             0.0000000000
      2151       690  TIP3      H2            -39.6055045060       -7.4129489638      -12.9070574713  SOLV      679             0.0000000000
      2152       691  TIP3      OH2           -35.9872301093       -7.8848461994      -13.4320233452  SOLV      680             0.0000000000
      2153       691  TIP3      H1            -36.0676765599       -7.8692779326      -12.4644349079  SOLV      680             0.0000000000
      2154       691  TIP3      H2            -36.9208310876       -8.0488796923      -13.6880126245  SOLV      680             0.0000000000
      2155       692  TIP3      OH2           -33.7356598271       -8.4085368158      -14.9868803005  SOLV      681             0.0000000000
      2156       692  TIP3      H1            -34.4709451080       -8.3307940621      -14.3442867558  SOLV      681             0.0000000000
      2157       692  TIP3      H2            -32.9796957005       -8.6520531901      -14.4148982322  SOLV      681             0.0000000000
      2158       693  TIP3      OH2           -31.4401058153       -8.9033401064      -13.4837660602  SOLV      682             0.0000000000
      2159       693  TIP3      H1            -31.3006303597       -9.8545421584      -13.2944097028  SOLV      682             0.0000000000
      2160       693  TIP3      H2            -31.5068880775       -8.5143560139      -12.5846306080  SOLV      682             0.0000000000
      2161       694  TIP3      OH2           -41.7453034287       -9.2232114081      -11.3220964910  SOLV      683             0.0000000000
      2162       694  TIP3      H1            -41.7333837360       -9.9629311093      -11.9425516946  SOLV      683             0.0000000000
      2163       694  TIP3      H2            -41.1564616870       -9.5226990809      -10.6004104437  SOLV      683             0.0000000000
      2164       695  TIP3      OH2           -36.5690635755      -12.6358595431      -12.9752571706  SOLV      684             0.0000000000
      2165       695  TIP3      H1            -35.8126258363      -13.2535548745      -13.0671259735  SOLV      684             0.0000000000
      2166       695  TIP3      H2            -36.9884400629      -12.7695170368      -13.8502563158  SOLV      684             0.0000000000
      2167       696  TIP3      OH2           -35.7927591858      -10.5862715727      -11.3917580475  SOLV      685             0.0000000000
      2168       696  TIP3      H1            -35.9968020066      -11.2491219907      -12.0882387559  SOLV      685             0.0000000000
      2169       696  TIP3      H2            -36.5456031017       -9.9586917563      -11.4850794885  SOLV      685             0.0000000000
      2170       697  TIP3      OH2           -30.9945832467        4.1021999337      -24.2786063428  SOLV      686             0.0000000000
      2171       697  TIP3      H1            -30.7653596877        4.3524267491      -23.3617305693  SOLV      686             0.0000000000
      2172       697  TIP3      H2            -30.3749454722        4.6392798529      -24.7914548293  SOLV      686             0.0000000000
      2173       698  TIP3      OH2           -30.6754425653        4.2324180775      -21.4813140038  SOLV      687             0.0000000000
      2174       698  TIP3      H1            -31.0814972713        3.3393808105      -21.4791943398  SOLV      687             0.0000000000
      2175       698  TIP3      H2            -29.9408079848        4.0749446009      -20.8596985435  SOLV      687             0.0000000000
      2176       699  TIP3      OH2           -30.2508077922        1.1007463167      -15.6771505400  SOLV      688             0.0000000000
      2177       699  TIP3      H1            -31.0074489776        1.2263916027      -15.0720795320  SOLV      688             0.0000000000
      2178       699  TIP3      H2            -29.8497426951        1.9929918445      -15.6994069536  SOLV      688             0.0000000000
      2179       700  TIP3      OH2           -30.8449627373       -5.6168366177      -27.2507388477  SOLV      689             0.0000000000
      2180       700  TIP3      H1            -31.4311234444       -5.1170300864      -26.6707170727  SOLV      689             0.0000000000
      2181       700  TIP3      H2            -29.9936413922       -5.1642982247      -27.0956422633  SOLV      689             0.0000000000
      2182       701  TIP3      OH2           -30.2700512106       -1.1832547049      -23.2767362558  SOLV      690             0.0000000000
      2183       701  TIP3      H1            -29.7137402281       -1.8662426758      -23.7015632175  SOLV      690             0.0000000000
      2184       701  TIP3      H2            -30.2672717505       -0.4656871343      -23.9386345971  SOLV      690             0.0000000000
      2185       702  TIP3      OH2           -31.9675371977        1.7477080599      -21.3514270963  SOLV      691             0.0000000000
      2186       702  TIP3      H1            -32.6103669525        2.2428984127      -20.8005596397  SOLV      691             0.0000000000
      2187       702  TIP3      H2            -32.5403718520        1.3416528918      -22.0319833408  SOLV      691             0.0000000000
      2188       703  TIP3      OH2           -29.7639523149       -2.2891350581      -17.5290221363  SOLV      692             0.0000000000
      2189       703  TIP3      H1            -29.0613585574       -2.9667902929      -17.6435534295  SOLV      692             0.0000000000
      2190       703  TIP3      H2            -29.4535934164       -1.5675646355      -18.1046364859  SOLV      692             0.0000000000
      2191       704  TIP3      OH2           -27.9790958825       -4.3287283255      -17.5113859071  SOLV      693             0.0000000000
      2192       704  TIP3      H1            -28.7088149191       -4.8047741730      -17.0574113189  SOLV      693             0.0000000000
      2193       704  TIP3      H2            -27.2320461914       -4.9294198284      -17.3063718241  SOLV      693             0.0000000000
      2194       705  TIP3      OH2           -31.1747809467       -7.3977192059      -22.1409199326  SOLV      694             0.0000000000
      2195       705  TIP3      H1            -30.2943095567       -7.3091334174      -22.5683600251  SOLV      694             0.0000000000
      2196       705  TIP3      H2            -30.9492516049       -7.1062283532      -21.2348650721  SOLV      694             0.0000000000
      2197       706  TIP3      OH2           -30.3515309954       -6.1752826173      -19.8043207888  SOLV      695             0.0000000000
      2198       706  TIP3      H1            -31.1365463666       -5.8514775611      -19.3184552377  SOLV      695             0.0000000000
      2199       706  TIP3      H2            -30.0418199673       -5.3559255114      -20.2487361104  SOLV      695             0.0000000000
      2200       707  TIP3      OH2           -25.8882977698      -10.2512472725      -14.3673415931  SOLV      696             0.0000000000
      2201       707  TIP3      H1            -25.2116137258      -10.7474856238      -14.8676675391  SOLV      696             0.0000000000
      2202       707  TIP3      H2            -26.2782151735       -9.6919044350      -15.0770056728  SOLV      696             0.0000000000
      2203       708  TIP3      OH2           -27.2164749487       -8.9017049511      -16.2483464384  SOLV      697             0.0000000000
      2204       708  TIP3      H1            -28.0277850651       -8.4333725173      -15.9574554497  SOLV      697             0.0000000000
      2205       708  TIP3      H2            -27.6230002743       -9.5780398798      -16.8286357156  SOLV      697             0.0000000000
      2206       709  TIP3      OH2           -37.3271859315        3.5218630416      -17.1103192755  SOLV      698             0.0000000000
      2207       709  TIP3      H1            -36.9404644884        3.3475916433      -16.2413519981  SOLV      698             0.0000000000
      2208       709  TIP3      H2            -36.5176412560        3.5895395887      -17.6409012508  SOLV      698             0.0000000000
      2209       710  TIP3      OH2           -28.1947111182      -11.2404069096      -17.4724521893  SOLV      699             0.0000000000
      2210       710  TIP3      H1            -29.0913846018      -11.2460907147      -17.8499611246  SOLV      699             0.0000000000
      2211       710  TIP3      H2            -27.9470028035      -12.1869423504      -17.5824859837  SOLV      699             0.0000000000
      2212       711  TIP3      OH2           -38.7081732158        3.6577818610      -21.5124830332  SOLV      700             0.0000000000
      2213       711  TIP3      H1            -39.5688653754        3.7636105526      -21.9695713789  SOLV      700             0.0000000000
      2214       711  TIP3      H2            -38.5855647097        4.5725582660      -21.1927689731  SOLV      700             0.0000000000
      2215       712  TIP3      OH2           -36.0696532021        3.1173614480      -20.9286658571  SOLV      701             0.0000000000
      2216       712  TIP3      H1            -36.9957974892        3.2500886271      -21.2112590657  SOLV      701             0.0000000000
      2217       712  TIP3      H2            -35.5987009660        3.7972168852      -21.4462310999  SOLV      701             0.0000000000
      2218       713  TIP3      OH2           -34.3204851162        5.0771060287      -22.0166062508  SOLV      702             0.0000000000
      2219       713  TIP3      H1            -34.4747787499        5.9331116162      -22.4789772562  SOLV      702             0.0000000000
      2220       713  TIP3      H2            -33.9996114033        4.5154209472      -22.7499512904  SOLV      702             0.0000000000
      2221       714  TIP3      OH2           -38.8557527152      -12.0039265688      -10.8785336166  SOLV      703             0.0000000000
      2222       714  TIP3      H1            -37.9026386140      -11.9707790687      -11.0726683067  SOLV      703             0.0000000000
      2223       714  TIP3      H2            -38.8645983724      -12.5141728574      -10.0355213436  SOLV      703             0.0000000000
      2224       715  TIP3      OH2           -30.7758783909      -11.5887610227      -13.0955530838  SOLV      704             0.0000000000
      2225       715  TIP3      H1            -30.6148300233      -11.8853181926      -12.1721415515  SOLV      704             0.0000000000
      2226       715  TIP3      H2            -29.8816919747      -11.6693156110      -13.4853769823  SOLV      704             0.0000000000
      2227       716  TIP3      OH2           -31.4171566349        3.7410654253      -18.0738914096  SOLV      705             0.0000000000
      2228       716  TIP3      H1            -32.1286567833        3.7954621740      -18.7471162042  SOLV      705             0.0000000000
      2229       716  TIP3      H2            -30.9664542881        4.6151344275      -18.1206776380  SOLV      705             0.0000000000
      2230       717  TIP3      OH2           -18.7649191074       -2.4007864093      -30.5944477927  SOLV      706             0.0000000000
      2231       717  TIP3      H1            -19.0537404334       -1.4812260087      -30.7611261762  SOLV      706             0.0000000000
      2232       717  TIP3      H2            -19.5344308408       -2.8847747239      -30.9445280905  SOLV      706             0.0000000000
      2233       718  TIP3      OH2           -18.7676201206       -2.4163348009      -26.7747477143  SOLV      707             0.0000000000
      2234       718  TIP3      H1            -18.4609458327       -2.4955053456      -25.8481316724  SOLV      707             0.0000000000
      2235       718  TIP3      H2            -19.2778725879       -3.2289975475      -26.8894457841  SOLV      707             0.0000000000
      2236       719  TIP3      OH2           -25.8352177022       -3.4759045011      -23.1114750607  SOLV      708             0.0000000000
      2237       719  TIP3      H1            -25.5465738117       -4.1826287910      -22.5043309479  SOLV      708             0.0000000000
      2238       719  TIP3      H2            -25.1027126823       -2.8508592801      -23.0190127523  SOLV      708             0.0000000000
      2239       720  TIP3      OH2           -16.3357568358        0.6588513927      -29.8856143222  SOLV      709             0.0000000000
      2240       720  TIP3      H1            -16.4849899734        0.0097873657      -29.1830202586  SOLV      709             0.0000000000
      2241       720  TIP3      H2            -16.0238169369        1.4305645874      -29.3784910118  SOLV      709             0.0000000000
      2242       721  TIP3      OH2           -26.1121323455        0.6427729186      -25.9642254921  SOLV      710             0.0000000000
      2243       721  TIP3      H1            -26.1689321167       -0.3361069833      -25.9302320702  SOLV      710             0.0000000000
      2244       721  TIP3      H2            -25.1505360569        0.7677443177      -25.8884368651  SOLV      710             0.0000000000
      2245       722  TIP3      OH2           -28.4478453901       -4.4465035959      -26.3286612191  SOLV      711             0.0000000000
      2246       722  TIP3      H1            -27.9550652686       -5.2191159467      -25.9746113460  SOLV      711             0.0000000000
      2247       722  TIP3      H2            -27.7742565535       -4.0021392039      -26.8612630040  SOLV      711             0.0000000000
      2248       723  TIP3      OH2           -19.8086461378        5.2628507358      -29.7242334503  SOLV      712             0.0000000000
      2249       723  TIP3      H1            -19.4163119638        4.5371733808      -30.2503572240  SOLV      712             0.0000000000
      2250       723  TIP3      H2            -19.8834820128        4.8520307877      -28.8523651054  SOLV      712             0.0000000000
      2251       724  TIP3      OH2           -20.8047428694       -0.1152127063      -26.2611831697  SOLV      713             0.0000000000
      2252       724  TIP3      H1            -20.3761751499       -0.8442794234      -26.7375556294  SOLV      713             0.0000000000
      2253       724  TIP3      H2            -19.9898599112        0.3494661780      -25.9657219701  SOLV      713             0.0000000000
      2254       725  TIP3      OH2           -10.6931999175       -6.9628859785      -26.2428296776  SOLV      714             0.0000000000
      2255       725  TIP3      H1            -10.4171902764       -6.1458344151      -25.7785066382  SOLV      714             0.0000000000
      2256       725  TIP3      H2            -10.4125953182       -6.7635629039      -27.1543585622  SOLV      714             0.0000000000
      2257       726  TIP3      OH2           -16.8064776274       -5.1968819481      -25.8966793335  SOLV      715             0.0000000000
      2258       726  TIP3      H1            -16.2831243132       -5.9527015015      -25.6189962380  SOLV      715             0.0000000000
      2259       726  TIP3      H2            -16.9978840170       -5.3884322760      -26.8359751199  SOLV      715             0.0000000000
      2260       727  TIP3      OH2           -23.0958560489       -8.3616902823      -26.1671156160  SOLV      716             0.0000000000
      2261       727  TIP3      H1            -23.4300023078       -7.7099154119      -26.8226299426  SOLV      716             0.0000000000
      2262       727  TIP3      H2            -23.6104660415       -9.1612781793      -26.4116897864  SOLV      716             0.0000000000
      2263       728  TIP3      OH2           -16.2712827767       -7.5978531961      -30.0549901030  SOLV      717             0.0000000000
      2264       728  TIP3      H1            -15.5779312025       -7.6674739678      -29.3605957536  SOLV      717             0.0000000000
      2265       728  TIP3      H2            -15.7440514276       -7.2576821291      -30.8048996885  SOLV      717             0.0000000000
      2266       729  TIP3      OH2           -26.9701210174       -6.5251516452      -25.2870044727  SOLV      718             0.0000000000
      2267       729  TIP3      H1            -26.1558307340       -6.6852060612      -24.7715002400  SOLV      718             0.0000000000
      2268       729  TIP3      H2            -26.8089408407       -7.1059224288      -26.0568879053  SOLV      718             0.0000000000
      2269       730  TIP3      OH2           -22.5685839484       -4.5424157656      -27.3046867102  SOLV      719             0.0000000000
      2270       730  TIP3      H1            -21.6305742041       -4.8049895606      -27.1875188856  SOLV      719             0.0000000000
      2271       730  TIP3      H2            -22.9795733795       -5.3859305237      -27.5831616359  SOLV      719             0.0000000000
      2272       731  TIP3      OH2           -10.0295129093       -4.8761845151      -24.4568811202  SOLV      720             0.0000000000
      2273       731  TIP3      H1            -10.7824020602       -4.2973440618      -24.6973866391  SOLV      720             0.0000000000
      2274       731  TIP3      H2             -9.5961737152       -4.3525036661      -23.7521780050  SOLV      720             0.0000000000
      2275       732  TIP3      OH2           -23.3406784934       -8.6978928982      -21.9455738416  SOLV      721             0.0000000000
      2276       732  TIP3      H1            -23.9371330351       -8.3104135172      -22.6133105905  SOLV      721             0.0000000000
      2277       732  TIP3      H2            -23.8695286986       -8.5371721920      -21.1344057489  SOLV      721             0.0000000000
      2278       733  TIP3      OH2           -19.8923900031       -0.1765735982      -31.8998712353  SOLV      722             0.0000000000
      2279       733  TIP3      H1            -20.3412995289       -0.2965171856      -32.7467902093  SOLV      722             0.0000000000
      2280       733  TIP3      H2            -20.3441846149        0.6290403694      -31.5680625630  SOLV      722             0.0000000000
      2281       734  TIP3      OH2           -22.2637027018       -0.9517231644      -24.0451977376  SOLV      723             0.0000000000
      2282       734  TIP3      H1            -22.8440141378       -0.2509308787      -23.6706851734  SOLV      723             0.0000000000
      2283       734  TIP3      H2            -21.8072585009       -0.4649444734      -24.7628567227  SOLV      723             0.0000000000
      2284       735  TIP3      OH2           -14.3122684302       -7.5510341092      -28.1296257450  SOLV      724             0.0000000000
      2285       735  TIP3      H1            -13.6484387741       -8.1243152605      -27.7289717143  SOLV      724             0.0000000000
      2286       735  TIP3      H2            -13.9167823701       -6.6699358570      -27.9529883120  SOLV      724             0.0000000000
      2287       736  TIP3      OH2           -24.6395354169       -7.4984719336      -24.0798009390  SOLV      725             0.0000000000
      2288       736  TIP3      H1            -24.0758721192       -6.7507229811      -23.7784876665  SOLV      725             0.0000000000
      2289       736  TIP3      H2            -24.0556064840       -7.8538001010      -24.7858096398  SOLV      725             0.0000000000
      2290       737  TIP3      OH2           -23.9772841472        1.0311114358      -23.0858694088  SOLV      726             0.0000000000
      2291       737  TIP3      H1            -24.2090912769        1.9349390745      -23.3866458516  SOLV      726             0.0000000000
      2292       737  TIP3      H2            -24.7674828694        0.8452447841      -22.5317409162  SOLV      726             0.0000000000
      2293       738  TIP3      OH2           -29.9457554629       -2.0502118540      -30.7700884071  SOLV      727             0.0000000000
      2294       738  TIP3      H1            -30.0373125564       -1.7852608197      -31.6970461862  SOLV      727             0.0000000000
      2295       738  TIP3      H2            -29.8182124413       -1.1741455141      -30.3474225354  SOLV      727             0.0000000000
      2296       739  TIP3      OH2           -15.7102958512        3.0896502915      -28.3361925802  SOLV      728             0.0000000000
      2297       739  TIP3      H1            -16.5883360475        2.9893395800      -27.9002578967  SOLV      728             0.0000000000
      2298       739  TIP3      H2            -15.8004320451        3.9766994684      -28.7375220893  SOLV      728             0.0000000000
      2299       740  TIP3      OH2           -12.8972804836       -8.0905872708      -24.9178013448  SOLV      729             0.0000000000
      2300       740  TIP3      H1            -13.3245184425       -7.2649361797      -24.6589401691  SOLV      729             0.0000000000
      2301       740  TIP3      H2            -12.1367959380       -7.7594258921      -25.4446865902  SOLV      729             0.0000000000
      2302       741  TIP3      OH2           -19.7932244012      -11.7010021709      -24.4831617805  SOLV      730             0.0000000000
      2303       741  TIP3      H1            -20.0659869802      -12.6302404603      -24.3374554854  SOLV      730             0.0000000000
      2304       741  TIP3      H2            -20.5961934767      -11.2268033797      -24.1764092098  SOLV      730             0.0000000000
      2305       742  TIP3      OH2           -18.7068827214        3.5225280150      -31.6300658389  SOLV      731             0.0000000000
      2306       742  TIP3      H1            -18.1889978299        2.6946504844      -31.7675596001  SOLV      731             0.0000000000
      2307       742  TIP3      H2            -18.0540208352        4.1725435212      -31.9790485878  SOLV      731             0.0000000000
      2308       743  TIP3      OH2           -17.2146313106        1.3610781963      -32.4041146271  SOLV      732             0.0000000000
      2309       743  TIP3      H1            -17.6694430416        0.5697006762      -32.7171267324  SOLV      732             0.0000000000
      2310       743  TIP3      H2            -16.8240466391        1.0420570754      -31.5589326999  SOLV      732             0.0000000000
      2311       744  TIP3      OH2           -13.2823872543        2.1687492588      -24.9001277761  SOLV      733             0.0000000000
      2312       744  TIP3      H1            -13.5794086659        1.3767497224      -25.3914198231  SOLV      733             0.0000000000
      2313       744  TIP3      H2            -13.5866330275        2.8936975234      -25.4795322052  SOLV      733             0.0000000000
      2314       745  TIP3      OH2           -20.4619769730       -3.8660907883      -32.2033626164  SOLV      734             0.0000000000
      2315       745  TIP3      H1            -21.2631155674       -3.3258841568      -32.3591856800  SOLV      734             0.0000000000
      2316       745  TIP3      H2            -20.1143962404       -3.9538575733      -33.1048554753  SOLV      734             0.0000000000
      2317       746  TIP3      OH2           -20.8835649009       -5.7567890562      -35.0701971325  SOLV      735             0.0000000000
      2318       746  TIP3      H1            -20.0706556064       -5.3375242140      -34.7363781376  SOLV      735             0.0000000000
      2319       746  TIP3      H2            -20.5765721150       -6.6620134446      -35.2702219173  SOLV      735             0.0000000000
      2320       747  TIP3      OH2           -11.4456861581       -1.4865174606      -26.3879811624  SOLV      736             0.0000000000
      2321       747  TIP3      H1            -12.2778117155       -0.9608111597      -26.3273614691  SOLV      736             0.0000000000
      2322       747  TIP3      H2            -11.1299527199       -1.1852486209      -27.2678888463  SOLV      736             0.0000000000
      2323       748  TIP3      OH2           -16.9835035473       -3.0329613970      -32.5552831667  SOLV      737             0.0000000000
      2324       748  TIP3      H1            -17.5394918486       -2.8025386654      -31.7733916469  SOLV      737             0.0000000000
      2325       748  TIP3      H2            -16.1346790060       -3.2456317159      -32.1136274034  SOLV      737             0.0000000000
      2326       749  TIP3      OH2           -14.7518676095       -2.8092795712      -23.5175297632  SOLV      738             0.0000000000
      2327       749  TIP3      H1            -14.6014434387       -2.0465986880      -22.9047342688  SOLV      738             0.0000000000
      2328       749  TIP3      H2            -15.5693329290       -2.4974571943      -23.9428890097  SOLV      738             0.0000000000
      2329       750  TIP3      OH2           -24.6637094895       -3.0598271582      -28.3252272625  SOLV      739             0.0000000000
      2330       750  TIP3      H1            -25.0726725815       -3.6438384859      -29.0015164041  SOLV      739             0.0000000000
      2331       750  TIP3      H2            -23.8892842506       -3.5900950999      -28.0406361252  SOLV      739             0.0000000000
      2332       751  TIP3      OH2           -23.3515039751        1.0855002237      -26.9170784442  SOLV      740             0.0000000000
      2333       751  TIP3      H1            -23.5277913771        0.7013825676      -27.7881794571  SOLV      740             0.0000000000
      2334       751  TIP3      H2            -22.4683126360        0.7170592215      -26.7059482460  SOLV      740             0.0000000000
      2335       752  TIP3      OH2           -23.3049519676       -3.3759097809      -24.8419112602  SOLV      741             0.0000000000
      2336       752  TIP3      H1            -22.9752333406       -3.5849783536      -25.7379743276  SOLV      741             0.0000000000
      2337       752  TIP3      H2            -22.8862859022       -2.5088156590      -24.6489648776  SOLV      741             0.0000000000
      2338       753  TIP3      OH2           -18.0810304194        2.9921121055      -27.0427361263  SOLV      742             0.0000000000
      2339       753  TIP3      H1            -18.1587885678        3.8048316535      -26.5076606945  SOLV      742             0.0000000000
      2340       753  TIP3      H2            -18.2411146285        2.2863519297      -26.3879499197  SOLV      742             0.0000000000
      2341       754  TIP3      OH2           -21.9100191659        2.2071888248      -21.6162139872  SOLV      743             0.0000000000
      2342       754  TIP3      H1            -22.5053497585        2.7928528700      -21.0988973926  SOLV      743             0.0000000000
      2343       754  TIP3      H2            -22.5686769266        1.6692098868      -22.0959521402  SOLV      743             0.0000000000
      2344       755  TIP3      OH2           -18.5190993733       -4.5449296465      -34.2447532918  SOLV      744             0.0000000000
      2345       755  TIP3      H1            -17.9928061435       -3.8835898817      -33.7386600244  SOLV      744             0.0000000000
      2346       755  TIP3      H2            -18.2583479003       -4.3109412597      -35.1693397006  SOLV      744             0.0000000000
      2347       756  TIP3      OH2           -24.3777944755       -2.2795651301      -20.5458067958  SOLV      745             0.0000000000
      2348       756  TIP3      H1            -24.3036402708       -1.3839556847      -20.1520477352  SOLV      745             0.0000000000
      2349       756  TIP3      H2            -25.3200867579       -2.4651449438      -20.3535755289  SOLV      745             0.0000000000
      2350       757  TIP3      OH2           -21.1456433617        2.2732255398      -31.5004070612  SOLV      746             0.0000000000
      2351       757  TIP3      H1            -20.3172568938        2.7919049643      -31.4624673636  SOLV      746             0.0000000000
      2352       757  TIP3      H2            -21.7384181557        2.8674346821      -31.9766726677  SOLV      746             0.0000000000
      2353       758  TIP3      OH2           -24.0206367890        3.7848439855      -20.7120596033  SOLV      747             0.0000000000
      2354       758  TIP3      H1            -24.4016798158        3.8639574045      -21.6033746779  SOLV      747             0.0000000000
      2355       758  TIP3      H2            -24.8128439649        3.5592538786      -20.1709540127  SOLV      747             0.0000000000
      2356       759  TIP3      OH2           -13.4842841676      -11.9979209852      -33.8144528248  SOLV      748             0.0000000000
      2357       759  TIP3      H1            -14.2863814558      -11.7712198738      -33.3024886577  SOLV      748             0.0000000000
      2358       759  TIP3      H2            -13.3280814984      -11.1771403524      -34.3246606236  SOLV      748             0.0000000000
      2359       760  TIP3      OH2           -25.9669731332       -4.6030020579      -30.2352719502  SOLV      749             0.0000000000
      2360       760  TIP3      H1            -26.6135700023       -4.0742580492      -30.7522765338  SOLV      749             0.0000000000
      2361       760  TIP3      H2            -26.4056837759       -5.4595242615      -30.1984558101  SOLV      749             0.0000000000
      2362       761  TIP3      OH2           -15.5239245120        1.6482575473      -38.3921213608  SOLV      750             0.0000000000
      2363       761  TIP3      H1            -15.3336822286        2.5897986837      -38.5554228989  SOLV      750             0.0000000000
      2364       761  TIP3      H2            -14.6252742400        1.2648615755      -38.4512040039  SOLV      750             0.0000000000
      2365       762  TIP3      OH2           -28.2394739943       -0.8142713160      -21.2215034503  SOLV      751             0.0000000000
      2366       762  TIP3      H1            -28.9042856137       -1.0424339460      -21.8988131149  SOLV      751             0.0000000000
      2367       762  TIP3      H2            -27.8339260828       -1.6779501118      -21.0016064797  SOLV      751             0.0000000000
      2368       763  TIP3      OH2           -29.6480723184        1.1372750007      -24.9539274814  SOLV      752             0.0000000000
      2369       763  TIP3      H1            -28.6820455145        1.0675743343      -24.9649356207  SOLV      752             0.0000000000
      2370       763  TIP3      H2            -29.7675951576        1.8738324838      -24.3315503735  SOLV      752             0.0000000000
      2371       764  TIP3      OH2           -11.0248615879        5.6889816927      -24.3676684208  SOLV      753             0.0000000000
      2372       764  TIP3      H1            -11.0393268229        4.7275140416      -24.1979700340  SOLV      753             0.0000000000
      2373       764  TIP3      H2            -11.8514026728        5.9527532562      -23.9003937783  SOLV      753             0.0000000000
      2374       765  TIP3      OH2           -20.0218945797        3.5134286040      -23.0541475941  SOLV      754             0.0000000000
      2375       765  TIP3      H1            -20.0379645270        4.4229137216      -22.6842864261  SOLV      754             0.0000000000
      2376       765  TIP3      H2            -20.7017247798        3.0757037281      -22.4921216454  SOLV      754             0.0000000000
      2377       766  TIP3      OH2           -22.3292995886        4.7620660052      -33.5235883250  SOLV      755             0.0000000000
      2378       766  TIP3      H1            -22.7474472007        4.5543321533      -34.3805270438  SOLV      755             0.0000000000
      2379       766  TIP3      H2            -22.7285034890        5.6177717621      -33.2901685935  SOLV      755             0.0000000000
      2380       767  TIP3      OH2           -28.0513503043        3.1780432779      -29.5344181164  SOLV      756             0.0000000000
      2381       767  TIP3      H1            -27.3867643017        3.1239388396      -28.8082285058  SOLV      756             0.0000000000
      2382       767  TIP3      H2            -28.8551583020        2.9962837812      -29.0185032705  SOLV      756             0.0000000000
      2383       768  TIP3      OH2           -20.3183798661        3.8715242734      -37.0537751959  SOLV      757             0.0000000000
      2384       768  TIP3      H1            -19.7538702857        3.2233531576      -37.5252295621  SOLV      757             0.0000000000
      2385       768  TIP3      H2            -19.9237394690        3.8769632261      -36.1610104634  SOLV      757             0.0000000000
      2386       769  TIP3      OH2           -19.7847962315        4.3081301605      -34.3428842175  SOLV      758             0.0000000000
      2387       769  TIP3      H1            -20.6948461369        4.3881889865      -33.9805216473  SOLV      758             0.0000000000
      2388       769  TIP3      H2            -19.3162246188        3.9313372822      -33.5788675056  SOLV      758             0.0000000000
      2389       770  TIP3      OH2           -12.0255612247       -3.0654706102      -21.5264737641  SOLV      759             0.0000000000
      2390       770  TIP3      H1            -12.9022260000       -2.7554073802      -21.8017381277  SOLV      759             0.0000000000
      2391       770  TIP3      H2            -12.0838610193       -4.0352821241      -21.6117083314  SOLV      759             0.0000000000
      2392       771  TIP3      OH2           -26.1908489435        1.0062228084      -21.4889848437  SOLV      760             0.0000000000
      2393       771  TIP3      H1            -25.7445905360        0.9799868905      -20.6204621787  SOLV      760             0.0000000000
      2394       771  TIP3      H2            -26.9440570818        0.3982662767      -21.3403069870  SOLV      760             0.0000000000
      2395       772  TIP3      OH2           -22.1795156343      -10.7281977803      -23.4794341580  SOLV      761             0.0000000000
      2396       772  TIP3      H1            -23.0497093584      -11.0198746854      -23.8263304765  SOLV      761             0.0000000000
      2397       772  TIP3      H2            -22.4724439194       -9.9451467351      -22.9690562406  SOLV      761             0.0000000000
      2398       773  TIP3      OH2           -16.8235728377       -9.6701227894      -21.4759985133  SOLV      762             0.0000000000
      2399       773  TIP3      H1            -16.1152939992       -9.8467138158      -20.8225601932  SOLV      762             0.0000000000
      2400       773  TIP3      H2            -17.6343703455       -9.7698308736      -20.9368182492  SOLV      762             0.0000000000
      2401       774  TIP3      OH2           -14.6195614281       -5.4443482732      -22.6258963212  SOLV      763             0.0000000000
      2402       774  TIP3      H1            -15.0574906023       -5.4749443399      -21.7438596343  SOLV      763             0.0000000000
      2403       774  TIP3      H2            -14.7418223543       -4.5000473428      -22.8712357498  SOLV      763             0.0000000000
      2404       775  TIP3      OH2           -17.8011084788       -3.9745199793      -36.7767105117  SOLV      764             0.0000000000
      2405       775  TIP3      H1            -18.3584597360       -3.9522968638      -37.5612366704  SOLV      764             0.0000000000
      2406       775  TIP3      H2            -17.0103468755       -3.4863906434      -37.0738429312  SOLV      764             0.0000000000
      2407       776  TIP3      OH2           -22.8222733260       -5.5718069387      -23.3216372332  SOLV      765             0.0000000000
      2408       776  TIP3      H1            -23.3033803091       -5.3406488196      -22.4996480921  SOLV      765             0.0000000000
      2409       776  TIP3      H2            -22.9844042401       -4.7628487570      -23.8601347390  SOLV      765             0.0000000000
      2410       777  TIP3      OH2           -24.0817623054       -6.7481308018      -28.1136934476  SOLV      766             0.0000000000
      2411       777  TIP3      H1            -25.0392591899       -6.9343910020      -28.0331779126  SOLV      766             0.0000000000
      2412       777  TIP3      H2            -23.9407783416       -6.9636545716      -29.0652450523  SOLV      766             0.0000000000
      2413       778  TIP3      OH2           -19.0759245616       -5.8599693098      -30.9101868337  SOLV      767             0.0000000000
      2414       778  TIP3      H1            -19.5832413835       -5.1195015121      -31.3144258468  SOLV      767             0.0000000000
      2415       778  TIP3      H2            -18.5524298590       -6.1742411847      -31.6692287247  SOLV      767             0.0000000000
      2416       779  TIP3      OH2           -17.4320662940       -3.1208296959      -20.1430556366  SOLV      768             0.0000000000
      2417       779  TIP3      H1            -17.5542523646       -3.8200996134      -19.4665522724  SOLV      768             0.0000000000
      2418       779  TIP3      H2            -16.5423596199       -2.7985415708      -19.9147545823  SOLV      768             0.0000000000
      2419       780  TIP3      OH2           -17.5668149566       -5.6386568741      -28.4944758259  SOLV      769             0.0000000000
      2420       780  TIP3      H1            -18.1815323416       -5.2448474397      -29.1465204553  SOLV      769             0.0000000000
      2421       780  TIP3      H2            -17.2522066261       -6.3914442510      -29.0371355222  SOLV      769             0.0000000000
      2422       781  TIP3      OH2           -24.6611501020       -5.3155504486      -21.2703356741  SOLV      770             0.0000000000
      2423       781  TIP3      H1            -24.4041709092       -4.6393889276      -20.6242348439  SOLV      770             0.0000000000
      2424       781  TIP3      H2            -24.7665570695       -6.1088964185      -20.7110032967  SOLV      770             0.0000000000
      2425       782  TIP3      OH2           -28.0147658853       -9.7934853919      -26.0919638983  SOLV      771             0.0000000000
      2426       782  TIP3      H1            -27.7639339619       -9.5718534035      -25.1733705590  SOLV      771             0.0000000000
      2427       782  TIP3      H2            -28.5541346305      -10.5880842498      -25.9630289743  SOLV      771             0.0000000000
      2428       783  TIP3      OH2           -17.7261649831       -3.1777591617      -24.3349086675  SOLV      772             0.0000000000
      2429       783  TIP3      H1            -17.3002418219       -3.8455836175      -24.9135051119  SOLV      772             0.0000000000
      2430       783  TIP3      H2            -17.8480979560       -3.7106759154      -23.5247023606  SOLV      772             0.0000000000
      2431       784  TIP3      OH2           -20.6453868854       -8.4990691312      -27.5132163671  SOLV      773             0.0000000000
      2432       784  TIP3      H1            -21.5454508419       -8.6331062487      -27.1542674805  SOLV      773             0.0000000000
      2433       784  TIP3      H2            -20.2467411263       -8.0583568982      -26.7526499208  SOLV      773             0.0000000000
      2434       785  TIP3      OH2           -26.5136099882       -8.0642865682      -27.6020639034  SOLV      774             0.0000000000
      2435       785  TIP3      H1            -27.4060358081       -8.4068742672      -27.3900834109  SOLV      774             0.0000000000
      2436       785  TIP3      H2            -26.0524084905       -8.9172172195      -27.6536157316  SOLV      774             0.0000000000
      2437       786  TIP3      OH2           -23.6024619529       -7.7150860543      -30.6100950057  SOLV      775             0.0000000000
      2438       786  TIP3      H1            -22.6440673183       -7.9051546483      -30.6052565162  SOLV      775             0.0000000000
      2439       786  TIP3      H2            -23.7952407905       -7.6976552402      -31.5527860145  SOLV      775             0.0000000000
      2440       787  TIP3      OH2           -14.0853958288        9.1600969276      -23.3284282839  SOLV      776             0.0000000000
      2441       787  TIP3      H1            -14.0866967426        9.3970567115      -24.2712569031  SOLV      776             0.0000000000
      2442       787  TIP3      H2            -13.2781165027        9.6105323062      -23.0098125859  SOLV      776             0.0000000000
      2443       788  TIP3      OH2           -24.5264924232        0.2174747233      -19.1753813836  SOLV      777             0.0000000000
      2444       788  TIP3      H1            -23.7317399390        0.5193380561      -18.6908938848  SOLV      777             0.0000000000
      2445       788  TIP3      H2            -25.1909908486        0.2785906358      -18.4615872872  SOLV      777             0.0000000000
      2446       789  TIP3      OH2           -19.9653664206       -5.2949027123      -26.6595778810  SOLV      778             0.0000000000
      2447       789  TIP3      H1            -19.0967033800       -5.4713993000      -27.0522527868  SOLV      778             0.0000000000
      2448       789  TIP3      H2            -19.8478350439       -5.5625926867      -25.7295139398  SOLV      778             0.0000000000
      2449       790  TIP3      OH2           -24.3887311575      -10.2984629374      -27.5053128597  SOLV      779             0.0000000000
      2450       790  TIP3      H1            -24.0949459617      -11.2151835082      -27.7065282797  SOLV      779             0.0000000000
      2451       790  TIP3      H2            -24.0355923468       -9.8393683343      -28.2800868152  SOLV      779             0.0000000000
      2452       791  TIP3      OH2           -20.1088812219       -6.1862021949      -23.7335580964  SOLV      780             0.0000000000
      2453       791  TIP3      H1            -21.0166376714       -5.8459669522      -23.5861301252  SOLV      780             0.0000000000
      2454       791  TIP3      H2            -19.5602761702       -5.5823107852      -23.1951680903  SOLV      780             0.0000000000
      2455       792  TIP3      OH2           -22.6466874736       -2.1910697588      -32.7597807159  SOLV      781             0.0000000000
      2456       792  TIP3      H1            -23.2209467318       -2.9921957311      -32.8056565571  SOLV      781             0.0000000000
      2457       792  TIP3      H2            -22.8831726991       -1.8683730720      -31.8544788740  SOLV      781             0.0000000000
      2458       793  TIP3      OH2           -13.7590130602       -0.0476558668      -26.5296978714  SOLV      782             0.0000000000
      2459       793  TIP3      H1            -13.5554966631        0.5311216734      -27.2929288488  SOLV      782             0.0000000000
      2460       793  TIP3      H2            -14.6532193464       -0.3847370438      -26.7517962596  SOLV      782             0.0000000000
      2461       794  TIP3      OH2           -18.3026635127       -9.2385257631      -34.1756137200  SOLV      783             0.0000000000
      2462       794  TIP3      H1            -19.1525192692       -9.3368501783      -33.7304552292  SOLV      783             0.0000000000
      2463       794  TIP3      H2            -18.0336885564       -8.3290017819      -33.9277900460  SOLV      783             0.0000000000
      2464       795  TIP3      OH2           -18.8377676616        0.8224485623      -22.7252262936  SOLV      784             0.0000000000
      2465       795  TIP3      H1            -18.3125264493        0.7173282965      -21.9169596605  SOLV      784             0.0000000000
      2466       795  TIP3      H2            -19.2028619022        1.7170945347      -22.6323057050  SOLV      784             0.0000000000
      2467       796  TIP3      OH2           -17.4896765882       -6.8413846190      -33.1092232907  SOLV      785             0.0000000000
      2468       796  TIP3      H1            -16.5398307200       -6.6957558135      -32.9306527931  SOLV      785             0.0000000000
      2469       796  TIP3      H2            -17.7370814207       -6.0240861257      -33.5940893382  SOLV      785             0.0000000000
      2470       797  TIP3      OH2           -25.8837122274       -2.1349908246      -26.0194243967  SOLV      786             0.0000000000
      2471       797  TIP3      H1            -25.4583847464       -2.4223997053      -26.8540941550  SOLV      786             0.0000000000
      2472       797  TIP3      H2            -25.4119813293       -2.6692427180      -25.3608559574  SOLV      786             0.0000000000
      2473       798  TIP3      OH2           -21.2260817285       -0.7914861744      -34.6217960578  SOLV      787             0.0000000000
      2474       798  TIP3      H1            -21.7105335120        0.0656819839      -34.5329328609  SOLV      787             0.0000000000
      2475       798  TIP3      H2            -21.7303369842       -1.3352321690      -33.9734997809  SOLV      787             0.0000000000
      2476       799  TIP3      OH2           -27.0038603070       -2.9427769708      -19.8752926225  SOLV      788             0.0000000000
      2477       799  TIP3      H1            -26.8150676199       -3.0355886013      -18.9196042644  SOLV      788             0.0000000000
      2478       799  TIP3      H2            -27.7158667884       -3.5943083497      -19.9881789930  SOLV      788             0.0000000000
      2479       800  TIP3      OH2           -19.7758740520       -1.7664391307      -19.6774902783  SOLV      789             0.0000000000
      2480       800  TIP3      H1            -20.3580332806       -2.3998203830      -20.1187126604  SOLV      789             0.0000000000
      2481       800  TIP3      H2            -18.8902536496       -2.0751474285      -19.9668099062  SOLV      789             0.0000000000
      2482       801  TIP3      OH2           -17.3167294827        3.7523582553      -23.8882212438  SOLV      790             0.0000000000
      2483       801  TIP3      H1            -18.2505997052        3.5957971556      -23.6607040386  SOLV      790             0.0000000000
      2484       801  TIP3      H2            -16.9643571732        4.0578640529      -23.0252709231  SOLV      790             0.0000000000
      2485       802  TIP3      OH2           -13.1758979753       -5.7586171401      -34.6809895570  SOLV      791             0.0000000000
      2486       802  TIP3      H1            -13.7330452346       -6.2056917546      -35.3618209559  SOLV      791             0.0000000000
      2487       802  TIP3      H2            -13.1923494368       -4.8599797521      -35.0791796401  SOLV      791             0.0000000000
      2488       803  TIP3      OH2           -10.8932508682        2.7990017728      -23.9048475897  SOLV      792             0.0000000000
      2489       803  TIP3      H1            -11.8687739281        2.7089784146      -24.0232072008  SOLV      792             0.0000000000
      2490       803  TIP3      H2            -10.6115003234        2.4737516606      -24.7881650074  SOLV      792             0.0000000000
      2491       804  TIP3      OH2           -16.0281346294        2.3472499432      -35.6766052871  SOLV      793             0.0000000000
      2492       804  TIP3      H1            -16.3894438400        1.7111571444      -35.0427109886  SOLV      793             0.0000000000
      2493       804  TIP3      H2            -16.0419749495        1.8541028211      -36.5153863063  SOLV      793             0.0000000000
      2494       805  TIP3      OH2           -16.1421134630       -1.3103109982      -27.4346599541  SOLV      794             0.0000000000
      2495       805  TIP3      H1            -17.0749900068       -1.5089157368      -27.2225709522  SOLV      794             0.0000000000
      2496       805  TIP3      H2            -15.8603409780       -2.1403727959      -27.8588460262  SOLV      794             0.0000000000
      2497       806  TIP3      OH2           -24.7957156872        0.9252846993      -29.7917804652  SOLV      795             0.0000000000
      2498       806  TIP3      H1            -24.8368184870        1.7369805180      -30.3321227585  SOLV      795             0.0000000000
      2499       806  TIP3      H2            -25.7215685674        0.7887585615      -29.5701572040  SOLV      795             0.0000000000
      2500       807  TIP3      OH2           -23.5114038497       -1.4541650126      -30.3221785896  SOLV      796             0.0000000000
      2501       807  TIP3      H1            -23.8545985703       -0.5565754549      -30.1357282155  SOLV      796             0.0000000000
      2502       807  TIP3      H2            -23.8666908799       -1.9588071788      -29.5676742016  SOLV      796             0.0000000000
      2503       808  TIP3      OH2           -22.1220856000        4.3378768871      -25.0846690195  SOLV      797             0.0000000000
      2504       808  TIP3      H1            -21.6580473149        5.0565596027      -25.5590376136  SOLV      797             0.0000000000
      2505       808  TIP3      H2            -21.3896020591        3.9522315610      -24.5718042741  SOLV      797             0.0000000000
      2506       809  TIP3      OH2           -25.6931739809        3.3177396696      -31.2170741886  SOLV      798             0.0000000000
      2507       809  TIP3      H1            -26.5323026808        3.4370100112      -30.7401732242  SOLV      798             0.0000000000
      2508       809  TIP3      H2            -25.3333300870        4.2346010488      -31.2055368330  SOLV      798             0.0000000000
      2509       810  TIP3      OH2           -18.3019519378        0.6446334305      -25.3992547044  SOLV      799             0.0000000000
      2510       810  TIP3      H1            -18.4887343566        0.6534091523      -24.4336315215  SOLV      799             0.0000000000
      2511       810  TIP3      H2            -17.3417967598        0.4845992170      -25.3648036768  SOLV      799             0.0000000000
      2512       811  TIP3      OH2           -18.6444853106       -0.3174061100      -36.5370131098  SOLV      800             0.0000000000
      2513       811  TIP3      H1            -17.9747592678       -0.6088730164      -35.8805385338  SOLV      800             0.0000000000
      2514       811  TIP3      H2            -19.4552514060       -0.4336960847      -36.0219312161  SOLV      800             0.0000000000
      2515       812  TIP3      OH2           -15.8056512421        5.9811925374      -24.9461783155  SOLV      801             0.0000000000
      2516       812  TIP3      H1            -16.5534928262        5.3464439057      -24.8912103516  SOLV      801             0.0000000000
      2517       812  TIP3      H2            -16.0721186473        6.5584663553      -25.6914446177  SOLV      801             0.0000000000
      2518       813  TIP3      OH2           -15.1351486654        4.4898002336      -38.7035050614  SOLV      802             0.0000000000
      2519       813  TIP3      H1            -14.6018602824        5.3155281293      -38.6745160426  SOLV      802             0.0000000000
      2520       813  TIP3      H2            -15.9694597349        4.8299396404      -38.3158663893  SOLV      802             0.0000000000
      2521       814  TIP3      OH2           -24.9654177248       -7.8957284652      -19.8289824091  SOLV      803             0.0000000000
      2522       814  TIP3      H1            -25.9310214308       -7.8492364548      -19.6919591912  SOLV      803             0.0000000000
      2523       814  TIP3      H2            -24.6819962339       -8.4043124778      -19.0520869571  SOLV      803             0.0000000000
      2524       815  TIP3      OH2           -16.8770503233       -1.0902245631      -34.5377773376  SOLV      804             0.0000000000
      2525       815  TIP3      H1            -16.9944465032       -1.7033942700      -33.7849893153  SOLV      804             0.0000000000
      2526       815  TIP3      H2            -15.8999078746       -1.0903010533      -34.6088238684  SOLV      804             0.0000000000
      2527       816  TIP3      OH2           -27.7734046629        2.9121718943      -23.4855367712  SOLV      805             0.0000000000
      2528       816  TIP3      H1            -27.1826709190        2.2704815428      -23.0513139929  SOLV      805             0.0000000000
      2529       816  TIP3      H2            -27.6839136330        3.6693234468      -22.8912636137  SOLV      805             0.0000000000
      2530       817  TIP3      OH2           -24.9535528547       -0.7138736203      -36.8525426383  SOLV      806             0.0000000000
      2531       817  TIP3      H1            -24.0796345555       -1.1695314336      -36.8714909577  SOLV      806             0.0000000000
      2532       817  TIP3      H2            -25.1530088367       -0.7190437018      -35.8939880190  SOLV      806             0.0000000000
      2533       818  TIP3      OH2           -25.3008563744       -0.5982864616      -34.1053691476  SOLV      807             0.0000000000
      2534       818  TIP3      H1            -24.6028546714       -0.9023492785      -33.5078150757  SOLV      807             0.0000000000
      2535       818  TIP3      H2            -25.3081990559        0.3696285500      -33.9259476825  SOLV      807             0.0000000000
      2536       819  TIP3      OH2           -27.8660367070       -3.4978278529      -31.8532817301  SOLV      808             0.0000000000
      2537       819  TIP3      H1            -28.6519628626       -3.2284268289      -31.3333811495  SOLV      808             0.0000000000
      2538       819  TIP3      H2            -27.9171819153       -2.8173375944      -32.5608010707  SOLV      808             0.0000000000
      2539       820  TIP3      OH2           -16.0728723259       -8.0177428542      -23.6949542176  SOLV      809             0.0000000000
      2540       820  TIP3      H1            -15.7516607110       -7.1383987098      -23.4039618140  SOLV      809             0.0000000000
      2541       820  TIP3      H2            -16.4025533437       -8.3452048930      -22.8280676863  SOLV      809             0.0000000000
      2542       821  TIP3      OH2           -17.6763751606       -9.7010764153      -31.2377302325  SOLV      810             0.0000000000
      2543       821  TIP3      H1            -17.6727735397       -9.4685554598      -32.1795342149  SOLV      810             0.0000000000
      2544       821  TIP3      H2            -17.2963373060       -8.8921123945      -30.8330010933  SOLV      810             0.0000000000
      2545       822  TIP3      OH2           -22.7140886542        1.4221406787      -34.3906597917  SOLV      811             0.0000000000
      2546       822  TIP3      H1            -23.5668637580        1.6733448310      -33.9863191271  SOLV      811             0.0000000000
      2547       822  TIP3      H2            -22.7124764644        1.9839918169      -35.1802434916  SOLV      811             0.0000000000
      2548       823  TIP3      OH2           -20.7894171712       -7.9117254471      -30.2212608655  SOLV      812             0.0000000000
      2549       823  TIP3      H1            -20.2296585666       -7.1352000222      -30.4462198090  SOLV      812             0.0000000000
      2550       823  TIP3      H2            -20.7418323842       -7.9004550486      -29.2441855675  SOLV      812             0.0000000000
      2551       824  TIP3      OH2           -18.0440686288       -4.8432238460      -22.1513294005  SOLV      813             0.0000000000
      2552       824  TIP3      H1            -18.0459706689       -4.0737679724      -21.5401527506  SOLV      813             0.0000000000
      2553       824  TIP3      H2            -17.4870182292       -5.4400319677      -21.6271861482  SOLV      813             0.0000000000
      2554       825  TIP3      OH2           -19.3435301099      -10.5665263817      -29.1060313647  SOLV      814             0.0000000000
      2555       825  TIP3      H1            -19.7730154259       -9.7760404966      -28.7272885035  SOLV      814             0.0000000000
      2556       825  TIP3      H2            -18.8603279168      -10.1909516490      -29.8715011051  SOLV      814             0.0000000000
      2557       826  TIP3      OH2           -25.2870509705        2.0674023551      -33.6269322233  SOLV      815             0.0000000000
      2558       826  TIP3      H1            -25.5436030188        2.7797719643      -34.2555521860  SOLV      815             0.0000000000
      2559       826  TIP3      H2            -25.4394092087        2.5204253587      -32.7688531282  SOLV      815             0.0000000000
      2560       827  TIP3      OH2           -11.8919272479       -5.8117405327      -22.3328475837  SOLV      816             0.0000000000
      2561       827  TIP3      H1            -12.8619074658       -5.8394059191      -22.4584132568  SOLV      816             0.0000000000
      2562       827  TIP3      H2            -11.5471223033       -5.6643524605      -23.2251744864  SOLV      816             0.0000000000
      2563       828  TIP3      OH2           -15.2856853895       -3.8298150088      -28.5636606416  SOLV      817             0.0000000000
      2564       828  TIP3      H1            -16.0543542257       -4.3923501730      -28.3727108776  SOLV      817             0.0000000000
      2565       828  TIP3      H2            -14.5681342976       -4.2497114605      -28.0458348942  SOLV      817             0.0000000000
      2566       829  TIP3      OH2           -28.0367471128       -1.3828590733      -33.6408694352  SOLV      818             0.0000000000
      2567       829  TIP3      H1            -27.4769421846       -0.6347119590      -33.3960097395  SOLV      818             0.0000000000
      2568       829  TIP3      H2            -27.6782159312       -1.5739273803      -34.5170574273  SOLV      818             0.0000000000
      2569       830  TIP3      OH2           -15.5929751951        5.8021804436      -29.0830709298  SOLV      819             0.0000000000
      2570       830  TIP3      H1            -16.0190816702        6.2844635740      -29.8255500442  SOLV      819             0.0000000000
      2571       830  TIP3      H2            -14.6480224629        5.9975905248      -29.2763171572  SOLV      819             0.0000000000
      2572       831  TIP3      OH2           -24.8003959937      -11.4891207409      -23.8123401281  SOLV      820             0.0000000000
      2573       831  TIP3      H1            -25.1109004519      -12.0527022443      -24.5518515262  SOLV      820             0.0000000000
      2574       831  TIP3      H2            -24.8130727051      -12.1374890440      -23.0707221304  SOLV      820             0.0000000000
      2575       832  TIP3      OH2           -29.7329602322        0.6022983048      -30.1591012637  SOLV      821             0.0000000000
      2576       832  TIP3      H1            -29.9325617246        0.9842788467      -29.2913225122  SOLV      821             0.0000000000
      2577       832  TIP3      H2            -29.1301400587        1.2527108454      -30.5435398864  SOLV      821             0.0000000000
      2578       833  TIP3      OH2           -22.9512217257        5.5939228278      -18.8775169668  SOLV      822             0.0000000000
      2579       833  TIP3      H1            -22.0426983950        5.2434130276      -18.8340338887  SOLV      822             0.0000000000
      2580       833  TIP3      H2            -23.3212413336        5.0048582684      -19.5619873675  SOLV      822             0.0000000000
      2581       834  TIP3      OH2           -23.2374676920        1.4162213169      -37.3432378927  SOLV      823             0.0000000000
      2582       834  TIP3      H1            -23.9730555616        0.7938482435      -37.1751867136  SOLV      823             0.0000000000
      2583       834  TIP3      H2            -22.5940599413        0.8322881298      -37.7628601386  SOLV      823             0.0000000000
      2584       835  TIP3      OH2           -16.6350476762        4.7116314252      -21.3861186668  SOLV      824             0.0000000000
      2585       835  TIP3      H1            -16.4396815785        3.8854210144      -20.8986701835  SOLV      824             0.0000000000
      2586       835  TIP3      H2            -15.8327767923        5.2279690570      -21.1809497371  SOLV      824             0.0000000000
      2587       836  TIP3      OH2           -18.7068220312        1.9203328719      -38.2532134221  SOLV      825             0.0000000000
      2588       836  TIP3      H1            -18.7245195101        1.0977296132      -37.7199299460  SOLV      825             0.0000000000
      2589       836  TIP3      H2            -17.8037792757        1.9070561383      -38.5971654948  SOLV      825             0.0000000000
      2590       837  TIP3      OH2           -26.5626402347        0.1385927902      -17.2509404522  SOLV      826             0.0000000000
      2591       837  TIP3      H1            -26.4115545891       -0.8191203384      -17.1672929457  SOLV      826             0.0000000000
      2592       837  TIP3      H2            -27.4324687546        0.1660543747      -17.7035760017  SOLV      826             0.0000000000
      2593       838  TIP3      OH2           -20.5791385424        0.9317963198      -19.4869576347  SOLV      827             0.0000000000
      2594       838  TIP3      H1            -20.8557764996        1.2196808008      -20.3765178025  SOLV      827             0.0000000000
      2595       838  TIP3      H2            -20.1905675516        0.0480279097      -19.6457573657  SOLV      827             0.0000000000
      2596       839  TIP3      OH2           -22.3774431042       -1.6183686014      -36.9589451613  SOLV      828             0.0000000000
      2597       839  TIP3      H1            -21.9282722833       -1.3342630977      -36.1351073338  SOLV      828             0.0000000000
      2598       839  TIP3      H2            -21.7055824308       -2.1742791718      -37.3707255594  SOLV      828             0.0000000000
      2599       840  TIP3      OH2           -15.7535986019        0.9921341657      -23.9751648521  SOLV      829             0.0000000000
      2600       840  TIP3      H1            -14.8415078599        1.2634153850      -23.7826965364  SOLV      829             0.0000000000
      2601       840  TIP3      H2            -16.2293995002        1.6652736693      -23.4703833588  SOLV      829             0.0000000000
      2602       841  TIP3      OH2           -25.3572830457       -2.5339710477      -17.4054451621  SOLV      830             0.0000000000
      2603       841  TIP3      H1            -24.5421317527       -2.9794131227      -17.6639828946  SOLV      830             0.0000000000
      2604       841  TIP3      H2            -25.0966135469       -2.1728256366      -16.5300470724  SOLV      830             0.0000000000
      2605       842  TIP3      OH2           -24.1439777396       -4.4418783630      -32.7733667363  SOLV      831             0.0000000000
      2606       842  TIP3      H1            -24.8547199607       -4.5988619557      -32.1332752942  SOLV      831             0.0000000000
      2607       842  TIP3      H2            -24.3204690392       -5.1133687071      -33.4392126015  SOLV      831             0.0000000000
      2608       843  TIP3      OH2           -22.0098726310       -3.7149305282      -20.8717413562  SOLV      832             0.0000000000
      2609       843  TIP3      H1            -22.7768261688       -3.1024737314      -20.8387509509  SOLV      832             0.0000000000
      2610       843  TIP3      H2            -21.4867588667       -3.3436797894      -21.6188720009  SOLV      832             0.0000000000
      2611       844  TIP3      OH2           -16.9490355593        0.3437970079      -19.6893653383  SOLV      833             0.0000000000
      2612       844  TIP3      H1            -16.1159132031        0.8016070993      -19.9506386060  SOLV      833             0.0000000000
      2613       844  TIP3      H2            -16.6843548502       -0.1837844520      -18.9237957772  SOLV      833             0.0000000000
      2614       845  TIP3      OH2           -15.5575521668       -2.9813077558      -38.1592118864  SOLV      834             0.0000000000
      2615       845  TIP3      H1            -15.4393373365       -3.2931313012      -39.0645128927  SOLV      834             0.0000000000
      2616       845  TIP3      H2            -15.5131825735       -2.0197517388      -38.2603909372  SOLV      834             0.0000000000
      2617       846  TIP3      OH2           -20.7634116871       -5.7673310904      -19.5940169920  SOLV      835             0.0000000000
      2618       846  TIP3      H1            -20.7839299315       -6.5483487185      -20.1776989291  SOLV      835             0.0000000000
      2619       846  TIP3      H2            -21.2159909865       -5.0858212838      -20.1416015285  SOLV      835             0.0000000000
      2620       847  TIP3      OH2           -20.7333266189       -7.9665264850      -21.5000886882  SOLV      836             0.0000000000
      2621       847  TIP3      H1            -20.4890176431       -7.4903012620      -22.3147749931  SOLV      836             0.0000000000
      2622       847  TIP3      H2            -21.6803480654       -8.1681345801      -21.6628179383  SOLV      836             0.0000000000
      2623       848  TIP3      OH2           -20.4758525305       -2.6502884454      -22.8192338283  SOLV      837             0.0000000000
      2624       848  TIP3      H1            -19.6182630599       -2.3453825026      -23.1503075266  SOLV      837             0.0000000000
      2625       848  TIP3      H2            -21.0814903778       -1.9913808056      -23.2220516359  SOLV      837             0.0000000000
      2626       849  TIP3      OH2           -14.7319101291       -2.9314290908      -19.0050041908  SOLV      838             0.0000000000
      2627       849  TIP3      H1            -14.1165406914       -3.6367121751      -18.7545440146  SOLV      838             0.0000000000
      2628       849  TIP3      H2            -14.1756741344       -2.3331487851      -19.5249335099  SOLV      838             0.0000000000
      2629       850  TIP3      OH2           -14.1615962860       -0.8639714385      -21.7774026950  SOLV      839             0.0000000000
      2630       850  TIP3      H1            -14.6508252751       -0.0589708875      -21.4888482871  SOLV      839             0.0000000000
      2631       850  TIP3      H2            -13.3472002112       -0.4000949611      -22.0752250814  SOLV      839             0.0000000000
      2632       851  TIP3      OH2           -21.9909279129       -4.7434935580      -17.2277792520  SOLV      840             0.0000000000
      2633       851  TIP3      H1            -22.6838612835       -5.4126743163      -17.0573298677  SOLV      840             0.0000000000
      2634       851  TIP3      H2            -21.6719478596       -5.0068161690      -18.1120574948  SOLV      840             0.0000000000
      2635       852  TIP3      OH2           -19.4926234251      -10.4002164244      -20.8017135461  SOLV      841             0.0000000000
      2636       852  TIP3      H1            -19.9454666733       -9.5606425866      -21.0367692712  SOLV      841             0.0000000000
      2637       852  TIP3      H2            -20.2290564348      -11.0404645963      -20.8935884470  SOLV      841             0.0000000000
      2638       853  TIP3      OH2           -18.1348311694       -5.3325994929      -18.6447411093  SOLV      842             0.0000000000
      2639       853  TIP3      H1            -18.2535110100       -5.4219123356      -17.6819757666  SOLV      842             0.0000000000
      2640       853  TIP3      H2            -19.0510938407       -5.5217484473      -18.9394134664  SOLV      842             0.0000000000
      2641       854  TIP3      OH2           -15.8846702638       -5.8941867077      -20.2184450795  SOLV      843             0.0000000000
      2642       854  TIP3      H1            -16.5693280310       -5.7727827476      -19.5261777411  SOLV      843             0.0000000000
      2643       854  TIP3      H2            -15.0991920502       -6.0995995649      -19.6666560462  SOLV      843             0.0000000000
      2644       855  TIP3      OH2           -13.5920738722       -6.3706236554      -18.6567349854  SOLV      844             0.0000000000
      2645       855  TIP3      H1            -13.4232499537       -7.3140189004      -18.4578898366  SOLV      844             0.0000000000
      2646       855  TIP3      H2            -13.6234159402       -5.9689601934      -17.7622598875  SOLV      844             0.0000000000
      2647       856  TIP3      OH2           -23.6378339625       -6.9326551045      -16.6806527492  SOLV      845             0.0000000000
      2648       856  TIP3      H1            -23.5865778450       -7.8612728525      -16.9741424914  SOLV      845             0.0000000000
      2649       856  TIP3      H2            -23.2690689442       -7.0027354430      -15.7762126076  SOLV      845             0.0000000000
      2650       857  TIP3      OH2           -18.5373543976      -10.2067690729      -18.2215667458  SOLV      846             0.0000000000
      2651       857  TIP3      H1            -17.8597160223      -10.9091398291      -18.2698900810  SOLV      846             0.0000000000
      2652       857  TIP3      H2            -18.9610949019      -10.2969292846      -19.0977024371  SOLV      846             0.0000000000
      2653       858  TIP3      OH2           -17.8524120963       -8.0571166576      -16.6160522670  SOLV      847             0.0000000000
      2654       858  TIP3      H1            -18.0775687728       -8.7517721922      -17.2703095193  SOLV      847             0.0000000000
      2655       858  TIP3      H2            -18.6333380210       -7.4630953845      -16.6653186800  SOLV      847             0.0000000000
      2656       859  TIP3      OH2           -25.4736575137        4.1781328447      -35.3856679407  SOLV      848             0.0000000000
      2657       859  TIP3      H1            -24.5749133102        4.0102927909      -35.7355306974  SOLV      848             0.0000000000
      2658       859  TIP3      H2            -25.7975187872        4.8195561987      -36.0470206792  SOLV      848             0.0000000000
      2659       860  TIP3      OH2           -31.1478411890        3.8650857966      -29.4544343566  SOLV      849             0.0000000000
      2660       860  TIP3      H1            -31.8208116707        3.3221059999      -29.8761709302  SOLV      849             0.0000000000
      2661       860  TIP3      H2            -30.9856241294        3.3892016426      -28.6131166230  SOLV      849             0.0000000000
      2662       861  TIP3      OH2           -30.0998821011        2.4554953232      -27.3831062903  SOLV      850             0.0000000000
      2663       861  TIP3      H1            -30.2498976581        1.8065856507      -26.6634291046  SOLV      850             0.0000000000
      2664       861  TIP3      H2            -29.6738261835        3.1556596939      -26.8456938083  SOLV      850             0.0000000000
      2665       862  TIP3      OH2           -13.0445543699        6.7068618149      -29.4360395231  SOLV      851             0.0000000000
      2666       862  TIP3      H1            -12.7753499393        6.9420494798      -28.5282340946  SOLV      851             0.0000000000
      2667       862  TIP3      H2            -12.3110786804        7.0515126884      -29.9687866642  SOLV      851             0.0000000000
      2668       863  TIP3      OH2           -12.7413063767        6.8492942177      -26.6342348016  SOLV      852             0.0000000000
      2669       863  TIP3      H1            -13.2329938666        5.9984530221      -26.6616326755  SOLV      852             0.0000000000
      2670       863  TIP3      H2            -12.0349038408        6.6000544760      -26.0157883949  SOLV      852             0.0000000000
      2671       864  TIP3      OH2           -14.1041217922       -1.2484089061      -34.7357705448  SOLV      853             0.0000000000
      2672       864  TIP3      H1            -13.4657698657       -0.5642455737      -35.0269670881  SOLV      853             0.0000000000
      2673       864  TIP3      H2            -13.6508330007       -1.5943459075      -33.9340506402  SOLV      853             0.0000000000
      2674       865  TIP3      OH2           -12.8289128355       -2.5731804991      -32.6935194883  SOLV      854             0.0000000000
      2675       865  TIP3      H1            -13.4998774422       -2.9456726530      -32.0817038633  SOLV      854             0.0000000000
      2676       865  TIP3      H2            -12.1612392237       -2.2016857249      -32.0783839833  SOLV      854             0.0000000000
      2677       866  TIP3      OH2           -12.2566160585        1.4145460876      -28.3692017085  SOLV      855             0.0000000000
      2678       866  TIP3      H1            -11.7438738017        0.7196499641      -28.8244760098  SOLV      855             0.0000000000
      2679       866  TIP3      H2            -12.2972016335        2.1219559165      -29.0409529011  SOLV      855             0.0000000000
      2680       867  TIP3      OH2           -14.0497336376        4.3988482917      -26.4520009691  SOLV      856             0.0000000000
      2681       867  TIP3      H1            -14.7544690514        4.7688642151      -25.8852827991  SOLV      856             0.0000000000
      2682       867  TIP3      H2            -14.5611805794        3.9306562508      -27.1439542119  SOLV      856             0.0000000000
      2683       868  TIP3      OH2           -13.5328626436       -3.4785036017      -36.2233883049  SOLV      857             0.0000000000
      2684       868  TIP3      H1            -14.2796430813       -3.4566757507      -36.8505612618  SOLV      857             0.0000000000
      2685       868  TIP3      H2            -13.7570078526       -2.7108055188      -35.6531720532  SOLV      857             0.0000000000
      2686       869  TIP3      OH2           -14.6793526253       -6.7439753616      -36.6936727318  SOLV      858             0.0000000000
      2687       869  TIP3      H1            -15.3496537527       -6.3808360018      -37.2788721538  SOLV      858             0.0000000000
      2688       869  TIP3      H2            -14.9397297113       -7.6925493779      -36.6718570010  SOLV      858             0.0000000000
      2689       870  TIP3      OH2           -14.7230204063       -3.9371751642      -31.2315845676  SOLV      859             0.0000000000
      2690       870  TIP3      H1            -14.6388642657       -4.8996328947      -31.3060819104  SOLV      859             0.0000000000
      2691       870  TIP3      H2            -14.8848338033       -3.8120012156      -30.2680142763  SOLV      859             0.0000000000
      2692       871  TIP3      OH2           -28.4839424610       -3.2410832906      -23.7523696291  SOLV      860             0.0000000000
      2693       871  TIP3      H1            -28.5101038896       -3.5802433198      -24.6690371740  SOLV      860             0.0000000000
      2694       871  TIP3      H2            -27.5113200972       -3.2331328978      -23.5878363000  SOLV      860             0.0000000000
      2695       872  TIP3      OH2           -11.8106498803        0.2316761816      -22.6458444021  SOLV      861             0.0000000000
      2696       872  TIP3      H1            -11.0232155747       -0.3374633032      -22.7604513128  SOLV      861             0.0000000000
      2697       872  TIP3      H2            -11.6113205125        1.0034858517      -23.1979357070  SOLV      861             0.0000000000
      2698       873  TIP3      OH2            -9.9378384317       -1.7547841684      -22.6482840700  SOLV      862             0.0000000000
      2699       873  TIP3      H1            -10.6806151246       -2.1857847914      -22.1700997312  SOLV      862             0.0000000000
      2700       873  TIP3      H2             -9.2175826847       -2.3859311574      -22.4474254684  SOLV      862             0.0000000000
      2701       874  TIP3      OH2           -15.3955636221       -9.3444329921      -36.4836390687  SOLV      863             0.0000000000
      2702       874  TIP3      H1            -14.5081419468       -9.7143353330      -36.3033567750  SOLV      863             0.0000000000
      2703       874  TIP3      H2            -15.9628173317       -9.8321230711      -35.8792861194  SOLV      863             0.0000000000
      2704       875  TIP3      OH2           -14.7349156307       -6.8074633440      -32.2923004664  SOLV      864             0.0000000000
      2705       875  TIP3      H1            -14.3252313687       -7.6984077025      -32.1898523324  SOLV      864             0.0000000000
      2706       875  TIP3      H2            -14.1682166197       -6.4388083861      -32.9961846210  SOLV      864             0.0000000000
      2707       876  TIP3      OH2           -13.1780972509       -5.1322008148      -27.3013721126  SOLV      865             0.0000000000
      2708       876  TIP3      H1            -12.3243737078       -4.9004072046      -27.7380885466  SOLV      865             0.0000000000
      2709       876  TIP3      H2            -13.0248454050       -4.6821417749      -26.4445757439  SOLV      865             0.0000000000
      2710       877  TIP3      OH2           -12.4790586138       -3.6521760344      -25.0281613789  SOLV      866             0.0000000000
      2711       877  TIP3      H1            -13.2482868908       -3.3007288742      -24.5303102941  SOLV      866             0.0000000000
      2712       877  TIP3      H2            -12.1411109949       -2.8311999680      -25.4530999086  SOLV      866             0.0000000000
      2713       878  TIP3      OH2           -26.2997494701       -6.4463793504      -17.1070610623  SOLV      867             0.0000000000
      2714       878  TIP3      H1            -25.3254495374       -6.4487667416      -16.9898253375  SOLV      867             0.0000000000
      2715       878  TIP3      H2            -26.5302587949       -7.2865477753      -16.6609596279  SOLV      867             0.0000000000
      2716       879  TIP3      OH2            -7.9405788387       -7.7158370838      -19.4614191368  SOLV      868             0.0000000000
      2717       879  TIP3      H1             -7.3136813040       -8.3427757489      -19.8804462231  SOLV      868             0.0000000000
      2718       879  TIP3      H2             -8.2601180886       -7.2026991680      -20.2348034320  SOLV      868             0.0000000000
      2719       880  TIP3      OH2           -13.6993697621       -9.3354467895      -31.9054031778  SOLV      869             0.0000000000
      2720       880  TIP3      H1            -13.1748049152       -9.4989894412      -31.0947233629  SOLV      869             0.0000000000
      2721       880  TIP3      H2            -14.3050271664      -10.1025156628      -31.8897238398  SOLV      869             0.0000000000
      2722       881  TIP3      OH2           -26.7180895715       -9.4670432709      -23.5974061641  SOLV      870             0.0000000000
      2723       881  TIP3      H1            -26.1024055998      -10.2284378018      -23.5967609257  SOLV      870             0.0000000000
      2724       881  TIP3      H2            -26.0905782015       -8.7271561112      -23.6612085969  SOLV      870             0.0000000000
      2725       882  TIP3      OH2           -28.6455303085       -6.7803964638      -22.9926075915  SOLV      871             0.0000000000
      2726       882  TIP3      H1            -28.1508847958       -6.7352766904      -23.8334476699  SOLV      871             0.0000000000
      2727       882  TIP3      H2            -28.3930300528       -5.9537735211      -22.5640758021  SOLV      871             0.0000000000
      2728       883  TIP3      OH2            -9.2712324089       -6.3604697915      -21.3981027545  SOLV      872             0.0000000000
      2729       883  TIP3      H1            -10.0720557207       -5.9064436217      -21.0622522836  SOLV      872             0.0000000000
      2730       883  TIP3      H2             -9.6837484706       -7.0271610604      -21.9818953294  SOLV      872             0.0000000000
      2731       884  TIP3      OH2           -12.7837753870      -10.0062622408      -35.6902011337  SOLV      873             0.0000000000
      2732       884  TIP3      H1            -12.1564596380      -10.5163315540      -36.2214661821  SOLV      873             0.0000000000
      2733       884  TIP3      H2            -12.2743054624       -9.1766603246      -35.5643867725  SOLV      873             0.0000000000
      2734       885  TIP3      OH2           -17.2004226336        5.3779245005      -32.8851463148  SOLV      874             0.0000000000
      2735       885  TIP3      H1            -16.6729651831        5.2915720510      -33.7061073001  SOLV      874             0.0000000000
      2736       885  TIP3      H2            -16.6636949792        5.9951031539      -32.3616022645  SOLV      874             0.0000000000
      2737       886  TIP3      OH2           -26.5603654967      -10.9383761527      -19.8245339964  SOLV      875             0.0000000000
      2738       886  TIP3      H1            -27.0745032853      -10.9168059888      -19.0007363220  SOLV      875             0.0000000000
      2739       886  TIP3      H2            -27.1970059184      -10.5416143773      -20.4495291630  SOLV      875             0.0000000000
      2740       887  TIP3      OH2           -26.2539563720        3.3263323696      -19.1767429108  SOLV      876             0.0000000000
      2741       887  TIP3      H1            -27.2177190297        3.2752507831      -19.3390536727  SOLV      876             0.0000000000
      2742       887  TIP3      H2            -26.2279743618        3.4439161806      -18.2207203183  SOLV      876             0.0000000000
      2743       888  TIP3      OH2           -24.4036065359        3.7250958083      -23.6218437464  SOLV      877             0.0000000000
      2744       888  TIP3      H1            -24.8712270420        4.5060701311      -23.9831747488  SOLV      877             0.0000000000
      2745       888  TIP3      H2            -23.5323196342        3.8739897056      -24.0417265194  SOLV      877             0.0000000000
      2746       889  TIP3      OH2           -20.0043702274        6.1642114829      -22.2049133909  SOLV      878             0.0000000000
      2747       889  TIP3      H1            -19.5762954978        6.1079672801      -21.3199588624  SOLV      878             0.0000000000
      2748       889  TIP3      H2            -19.3322472108        6.6807727891      -22.6955667663  SOLV      878             0.0000000000
      2749       890  TIP3      OH2           -18.1990210516        7.7102215783      -23.6016627084  SOLV      879             0.0000000000
      2750       890  TIP3      H1            -17.4909176691        7.1534630250      -23.9564179573  SOLV      879             0.0000000000
      2751       890  TIP3      H2            -17.6870858067        8.2746535780      -22.9793749228  SOLV      879             0.0000000000
      2752       891  TIP3      OH2           -10.2115611811       -8.7476137623      -22.6011730333  SOLV      880             0.0000000000
      2753       891  TIP3      H1            -11.1342136148       -8.8788508387      -22.8617126483  SOLV      880             0.0000000000
      2754       891  TIP3      H2             -9.8486260586       -9.6594022407      -22.6909251103  SOLV      880             0.0000000000
      2755       892  TIP3      OH2           -27.6632561793        6.3121621362      -23.3404380996  SOLV      881             0.0000000000
      2756       892  TIP3      H1            -28.5887689578        6.5990172596      -23.5181227054  SOLV      881             0.0000000000
      2757       892  TIP3      H2            -27.4894351491        6.7973980552      -22.5212829467  SOLV      881             0.0000000000
      2758       893  TIP3      OH2           -25.3069999445        6.0799954531      -24.7383294605  SOLV      882             0.0000000000
      2759       893  TIP3      H1            -26.1837640003        6.1890845791      -24.3027463831  SOLV      882             0.0000000000
      2760       893  TIP3      H2            -25.4904499156        6.4136426256      -25.6363156581  SOLV      882             0.0000000000
      2761       894  TIP3      OH2           -21.0494782225        6.3542420992      -26.7735557924  SOLV      883             0.0000000000
      2762       894  TIP3      H1            -21.7777826103        6.5462587935      -27.3880747829  SOLV      883             0.0000000000
      2763       894  TIP3      H2            -20.9375276252        7.2141440123      -26.3152073429  SOLV      883             0.0000000000
      2764       895  TIP3      OH2           -18.3572208645        5.7149152899      -26.3135144406  SOLV      884             0.0000000000
      2765       895  TIP3      H1            -19.2946247553        5.9237041742      -26.4867836438  SOLV      884             0.0000000000
      2766       895  TIP3      H2            -17.9015852505        6.4934322831      -26.6688945767  SOLV      884             0.0000000000
      2767       896  TIP3      OH2           -16.3242228096        7.6284967711      -27.1306874850  SOLV      885             0.0000000000
      2768       896  TIP3      H1            -16.4295895907        8.4668592753      -27.6257900107  SOLV      885             0.0000000000
      2769       896  TIP3      H2            -16.0338417062        7.0110308338      -27.8377032002  SOLV      885             0.0000000000
      2770       897  TIP3      OH2           -28.5125499613        4.1920651550      -25.9121953263  SOLV      886             0.0000000000
      2771       897  TIP3      H1            -28.2929634181        3.9315192680      -24.9922457960  SOLV      886             0.0000000000
      2772       897  TIP3      H2            -27.7543459823        3.7741664449      -26.3767072211  SOLV      886             0.0000000000
      2773       898  TIP3      OH2           -26.5398333373        2.9440906575      -27.3235960522  SOLV      887             0.0000000000
      2774       898  TIP3      H1            -26.4238012996        2.1022016370      -26.8184880109  SOLV      887             0.0000000000
      2775       898  TIP3      H2            -25.6228340284        3.2951030634      -27.3065260788  SOLV      887             0.0000000000
      2776       899  TIP3      OH2           -23.9029722312        3.8498024916      -27.2151913186  SOLV      888             0.0000000000
      2777       899  TIP3      H1            -23.6053539518        2.9207462678      -27.2918015947  SOLV      888             0.0000000000
      2778       899  TIP3      H2            -23.4073434157        4.1014777428      -26.4101796255  SOLV      888             0.0000000000
      2779       900  TIP3      OH2           -12.9585544142      -10.7394147840      -27.3418785480  SOLV      889             0.0000000000
      2780       900  TIP3      H1            -12.5765278052      -10.3024555976      -28.1362726117  SOLV      889             0.0000000000
      2781       900  TIP3      H2            -13.9043418249      -10.5697206371      -27.4398164973  SOLV      889             0.0000000000
      2782       901  TIP3      OH2           -12.0655615793       -9.7769210238      -29.7133035249  SOLV      890             0.0000000000
      2783       901  TIP3      H1            -11.3397378424      -10.3323009545      -30.0780908884  SOLV      890             0.0000000000
      2784       901  TIP3      H2            -11.6740047499       -8.8861287407      -29.8860615572  SOLV      890             0.0000000000
      2785       902  TIP3      OH2           -21.4721410506      -11.8722440643      -27.5704830054  SOLV      891             0.0000000000
      2786       902  TIP3      H1            -20.7770699435      -11.5320795726      -28.1593646313  SOLV      891             0.0000000000
      2787       902  TIP3      H2            -21.0312575781      -11.8558894084      -26.7118572608  SOLV      891             0.0000000000
      2788       903  TIP3      OH2           -15.9025716950      -10.4610402396      -26.9107145919  SOLV      892             0.0000000000
      2789       903  TIP3      H1            -16.1208426734      -10.3863131652      -27.8574383801  SOLV      892             0.0000000000
      2790       903  TIP3      H2            -15.9894741397      -11.4441113629      -26.7827394400  SOLV      892             0.0000000000
      2791       904  TIP3      OH2           -15.5596246181      -11.4992781439      -31.9857944253  SOLV      893             0.0000000000
      2792       904  TIP3      H1            -16.3964603775      -11.0895997581      -31.6918317094  SOLV      893             0.0000000000
      2793       904  TIP3      H2            -15.6565708435      -12.4032442480      -31.6262952603  SOLV      893             0.0000000000
      2794       905  TIP3      OH2           -22.0090592820      -10.3871912507      -30.7230906702  SOLV      894             0.0000000000
      2795       905  TIP3      H1            -21.4058601170      -11.1154314147      -30.9511777267  SOLV      894             0.0000000000
      2796       905  TIP3      H2            -21.4095813693       -9.6199906097      -30.6604414739  SOLV      894             0.0000000000
      2797       906  TIP3      OH2           -22.8896084193        3.8398725465      -36.1924078006  SOLV      895             0.0000000000
      2798       906  TIP3      H1            -21.9848099727        4.0511264707      -36.5173127390  SOLV      895             0.0000000000
      2799       906  TIP3      H2            -23.0778563034        3.0736402520      -36.7826902264  SOLV      895             0.0000000000
      2800       907  TIP3      OH2           -15.7284172057        5.0127692245      -35.2067415016  SOLV      896             0.0000000000
      2801       907  TIP3      H1            -15.7729020489        4.0293218084      -35.2831510419  SOLV      896             0.0000000000
      2802       907  TIP3      H2            -16.2333424693        5.2759136982      -36.0005812952  SOLV      896             0.0000000000
      2803       908  TIP3      OH2           -23.6049643003       -9.6853153746      -17.4059712259  SOLV      897             0.0000000000
      2804       908  TIP3      H1            -23.9818679604      -10.3845756353      -16.8403845688  SOLV      897             0.0000000000
      2805       908  TIP3      H2            -22.6742279773       -9.6894999462      -17.0879970646  SOLV      897             0.0000000000
      2806       909  TIP3      OH2           -21.1141925942       -9.7678274809      -16.1625696964  SOLV      898             0.0000000000
      2807       909  TIP3      H1            -20.2372147768       -9.8991416458      -16.5591882712  SOLV      898             0.0000000000
      2808       909  TIP3      H2            -21.1310661060      -10.4922307532      -15.5095730510  SOLV      898             0.0000000000
      2809       910  TIP3      OH2           -12.8544595530       -9.0671835185      -18.2907421034  SOLV      899             0.0000000000
      2810       910  TIP3      H1            -12.6969946640       -9.3629559261      -17.3661541473  SOLV      899             0.0000000000
      2811       910  TIP3      H2            -11.9473908115       -9.0997466531      -18.6605302101  SOLV      899             0.0000000000
      2812       911  TIP3      OH2           -13.4918388415        6.4775576261      -23.4262331931  SOLV      900             0.0000000000
      2813       911  TIP3      H1            -14.2903147182        6.1449139016      -23.8870454492  SOLV      900             0.0000000000
      2814       911  TIP3      H2            -13.7323964008        7.4187093808      -23.3131393696  SOLV      900             0.0000000000
      2815       912  TIP3      OH2            -0.9464303579        0.2608144473      -35.5642783125  SOLV      901             0.0000000000
      2816       912  TIP3      H1             -1.2550626417        1.1528203099      -35.7821491182  SOLV      901             0.0000000000
      2817       912  TIP3      H2             -1.6394237298       -0.2910886089      -35.9620642031  SOLV      901             0.0000000000
      2818       913  TIP3      OH2            -0.7828574868        0.2127073971      -31.8569978331  SOLV      902             0.0000000000
      2819       913  TIP3      H1             -0.4736364058       -0.0659554963      -30.9750799152  SOLV      902             0.0000000000
      2820       913  TIP3      H2             -1.2152807567       -0.5886171869      -32.1871986974  SOLV      902             0.0000000000
      2821       914  TIP3      OH2            -7.8720348091       -0.9215363178      -28.2323112561  SOLV      903             0.0000000000
      2822       914  TIP3      H1             -7.5750460424       -1.6090474561      -27.6085481177  SOLV      903             0.0000000000
      2823       914  TIP3      H2             -7.1079212941       -0.3286914286      -28.2312224803  SOLV      903             0.0000000000
      2824       915  TIP3      OH2             1.3468931296        3.3498388384      -34.9108202161  SOLV      904             0.0000000000
      2825       915  TIP3      H1              1.3546359972        2.5871579016      -34.3169972491  SOLV      904             0.0000000000
      2826       915  TIP3      H2              1.6829865455        4.0622215106      -34.3390310215  SOLV      904             0.0000000000
      2827       916  TIP3      OH2            -8.1262020908        3.1967245612      -31.0154680742  SOLV      905             0.0000000000
      2828       916  TIP3      H1             -8.1874489176        2.2196400326      -31.0070780333  SOLV      905             0.0000000000
      2829       916  TIP3      H2             -7.1627644351        3.3119314589      -31.1410458118  SOLV      905             0.0000000000
      2830       917  TIP3      OH2           -11.0547218234       -4.8329568841      -33.1936887338  SOLV      906             0.0000000000
      2831       917  TIP3      H1            -11.4647742776       -3.9816375503      -32.9602121461  SOLV      906             0.0000000000
      2832       917  TIP3      H2            -11.8044537952       -5.2653758468      -33.6437617141  SOLV      906             0.0000000000
      2833       918  TIP3      OH2           -10.4925060355       -1.9010664695      -31.4018766214  SOLV      907             0.0000000000
      2834       918  TIP3      H1             -9.9768217551       -2.6684790289      -31.0677452015  SOLV      907             0.0000000000
      2835       918  TIP3      H2             -9.8293744897       -1.4219724828      -31.9200608988  SOLV      907             0.0000000000
      2836       919  TIP3      OH2            -1.2344248244        7.9244360441      -34.5356710917  SOLV      908             0.0000000000
      2837       919  TIP3      H1             -0.9644688328        7.1347521039      -35.0406514605  SOLV      908             0.0000000000
      2838       919  TIP3      H2             -2.2027026094        7.9066773045      -34.6970187460  SOLV      908             0.0000000000
      2839       920  TIP3      OH2            -2.8621027183        2.4283081475      -31.4085572160  SOLV      909             0.0000000000
      2840       920  TIP3      H1             -2.4275898366        1.6753946013      -31.8416224982  SOLV      909             0.0000000000
      2841       920  TIP3      H2             -2.0540944115        2.9088553875      -31.1229587898  SOLV      909             0.0000000000
      2842       921  TIP3      OH2             7.3013561638       -4.3564924585      -31.3823817055  SOLV      910             0.0000000000
      2843       921  TIP3      H1              7.6054000865       -3.5408999644      -30.9308131943  SOLV      910             0.0000000000
      2844       921  TIP3      H2              7.4938534233       -4.1352631948      -32.3092599703  SOLV      910             0.0000000000
      2845       922  TIP3      OH2             1.2725828586       -2.5800237714      -31.0964140411  SOLV      911             0.0000000000
      2846       922  TIP3      H1              1.6870865406       -3.4404690288      -30.8992729059  SOLV      911             0.0000000000
      2847       922  TIP3      H2              0.9535586592       -2.7309917801      -32.0073591341  SOLV      911             0.0000000000
      2848       923  TIP3      OH2            -5.2896386141       -5.9770366870      -31.4560597947  SOLV      912             0.0000000000
      2849       923  TIP3      H1             -5.4935723430       -5.2362854017      -32.0663855204  SOLV      912             0.0000000000
      2850       923  TIP3      H2             -5.7908748094       -6.6978684950      -31.8949012597  SOLV      912             0.0000000000
      2851       924  TIP3      OH2             1.5332542412       -5.1202431119      -34.9903138108  SOLV      913             0.0000000000
      2852       924  TIP3      H1              2.2505973810       -5.2789340232      -34.3365957238  SOLV      913             0.0000000000
      2853       924  TIP3      H2              2.0823432480       -4.7785513701      -35.7250924942  SOLV      913             0.0000000000
      2854       925  TIP3      OH2            -9.0156327828       -3.9575629328      -30.3611716919  SOLV      914             0.0000000000
      2855       925  TIP3      H1             -8.1824668718       -4.1052719200      -29.8748197993  SOLV      914             0.0000000000
      2856       925  TIP3      H2             -8.8382663929       -4.4968037293      -31.1622855910  SOLV      914             0.0000000000
      2857       926  TIP3      OH2            -4.6070335629       -1.9694118410      -32.3983476956  SOLV      915             0.0000000000
      2858       926  TIP3      H1             -3.6621374733       -2.2118488908      -32.2894843828  SOLV      915             0.0000000000
      2859       926  TIP3      H2             -4.9899254888       -2.8090412881      -32.7312165295  SOLV      915             0.0000000000
      2860       927  TIP3      OH2             8.0302102741       -2.2712909298      -29.7150101498  SOLV      916             0.0000000000
      2861       927  TIP3      H1              7.1760254596       -1.8217270382      -29.8872747419  SOLV      916             0.0000000000
      2862       927  TIP3      H2              8.2423416975       -1.9265896970      -28.8315964975  SOLV      916             0.0000000000
      2863       928  TIP3      OH2            -5.3808741145       -6.1338047375      -27.0950349309  SOLV      917             0.0000000000
      2864       928  TIP3      H1             -5.9630277278       -5.7428491194      -27.7740643123  SOLV      917             0.0000000000
      2865       928  TIP3      H2             -5.9096796847       -5.9571398589      -26.2884104234  SOLV      917             0.0000000000
      2866       929  TIP3      OH2            -2.1239156234        2.4178250735      -37.3772750051  SOLV      918             0.0000000000
      2867       929  TIP3      H1             -2.9930166540        1.9838550161      -37.3784980403  SOLV      918             0.0000000000
      2868       929  TIP3      H2             -2.3804732256        3.3074330284      -37.0453654823  SOLV      918             0.0000000000
      2869       930  TIP3      OH2            -4.3087049287        1.6374284891      -29.1945376343  SOLV      919             0.0000000000
      2870       930  TIP3      H1             -4.8982107157        2.3353288416      -28.8305517682  SOLV      919             0.0000000000
      2871       930  TIP3      H2             -3.8977544417        2.1033298130      -29.9533686481  SOLV      919             0.0000000000
      2872       931  TIP3      OH2             3.6986187230       -5.0053685175      -33.3662750622  SOLV      920             0.0000000000
      2873       931  TIP3      H1              3.4206353878       -5.3519986167      -32.5067455523  SOLV      920             0.0000000000
      2874       931  TIP3      H2              4.1451750665       -4.1726333051      -33.1071654621  SOLV      920             0.0000000000
      2875       932  TIP3      OH2            -6.6564580953       -4.9833872336      -29.2667186314  SOLV      921             0.0000000000
      2876       932  TIP3      H1             -6.0505095602       -4.2483653395      -29.0168267666  SOLV      921             0.0000000000
      2877       932  TIP3      H2             -6.1491155369       -5.3727751502      -30.0146265765  SOLV      921             0.0000000000
      2878       933  TIP3      OH2            -5.9967639818        3.6096125022      -28.1660687920  SOLV      922             0.0000000000
      2879       933  TIP3      H1             -6.2496731090        4.4756579420      -28.5456151453  SOLV      922             0.0000000000
      2880       933  TIP3      H2             -6.7982632412        3.4367336711      -27.6253867014  SOLV      922             0.0000000000
      2881       934  TIP3      OH2           -12.1349437292        0.4771186824      -35.7938365046  SOLV      923             0.0000000000
      2882       934  TIP3      H1            -12.5181030052        0.7575638938      -36.6447846703  SOLV      923             0.0000000000
      2883       934  TIP3      H2            -11.7976210980        1.3280568353      -35.4383273894  SOLV      923             0.0000000000
      2884       935  TIP3      OH2             2.3478234679        5.6758672464      -33.4133682428  SOLV      924             0.0000000000
      2885       935  TIP3      H1              1.5053015686        5.5339929767      -32.9144117996  SOLV      924             0.0000000000
      2886       935  TIP3      H2              2.1454313337        6.5138086626      -33.8602984802  SOLV      924             0.0000000000
      2887       936  TIP3      OH2             5.2305909450       -5.4193370976      -29.7788981712  SOLV      925             0.0000000000
      2888       936  TIP3      H1              4.3648109008       -5.1224762711      -30.1028109112  SOLV      925             0.0000000000
      2889       936  TIP3      H2              5.8429931518       -5.0573403105      -30.4537406139  SOLV      925             0.0000000000
      2890       937  TIP3      OH2            -1.8687123784       -8.9776418274      -29.9284854794  SOLV      926             0.0000000000
      2891       937  TIP3      H1             -2.0391091186       -9.9207007503      -29.7452243479  SOLV      926             0.0000000000
      2892       937  TIP3      H2             -2.6260142071       -8.5666493717      -29.4562081805  SOLV      926             0.0000000000
      2893       938  TIP3      OH2            -0.6889393956        6.1123160739      -36.6529079365  SOLV      927             0.0000000000
      2894       938  TIP3      H1             -0.1840407152        5.3517942646      -37.0117800309  SOLV      927             0.0000000000
      2895       938  TIP3      H2             -0.2313863578        6.8657897193      -37.0799182213  SOLV      927             0.0000000000
      2896       939  TIP3      OH2             0.6724692202        3.7906404907      -37.4633116894  SOLV      928             0.0000000000
      2897       939  TIP3      H1              0.1994073288        2.9993756445      -37.7462585651  SOLV      928             0.0000000000
      2898       939  TIP3      H2              0.8254511678        3.5987251296      -36.5094661977  SOLV      928             0.0000000000
      2899       940  TIP3      OH2             4.5537410089        4.7386667412      -29.9786756071  SOLV      929             0.0000000000
      2900       940  TIP3      H1              4.3962179799        3.9569965702      -30.5510991416  SOLV      929             0.0000000000
      2901       940  TIP3      H2              4.3602529293        5.4793854794      -30.5901968665  SOLV      929             0.0000000000
      2902       941  TIP3      OH2            -2.2934145290       -1.3762922564      -37.4605488349  SOLV      930             0.0000000000
      2903       941  TIP3      H1             -3.1711858011       -0.9274155843      -37.5144810586  SOLV      930             0.0000000000
      2904       941  TIP3      H2             -1.8268084096       -0.9654011651      -38.1990192705  SOLV      930             0.0000000000
      2905       942  TIP3      OH2             6.4755848066        1.1349792760      -31.4715658501  SOLV      931             0.0000000000
      2906       942  TIP3      H1              5.6222572858        1.6204510916      -31.4130117110  SOLV      931             0.0000000000
      2907       942  TIP3      H2              6.7756432062        1.4273040412      -32.3579275013  SOLV      931             0.0000000000
      2908       943  TIP3      OH2             0.8740628359       -0.6066506719      -37.4755818154  SOLV      932             0.0000000000
      2909       943  TIP3      H1              0.3312588565       -0.2715944223      -36.7352341049  SOLV      932             0.0000000000
      2910       943  TIP3      H2              1.7675594672       -0.5852529187      -37.0996532927  SOLV      932             0.0000000000
      2911       944  TIP3      OH2             3.2862258699       -0.1176836923      -28.4945913782  SOLV      933             0.0000000000
      2912       944  TIP3      H1              3.2677485493        0.7161612239      -27.9866934940  SOLV      933             0.0000000000
      2913       944  TIP3      H2              2.4202661737       -0.0691553951      -28.9477206212  SOLV      933             0.0000000000
      2914       945  TIP3      OH2            -6.7492785129       -0.5487681784      -33.4817196223  SOLV      934             0.0000000000
      2915       945  TIP3      H1             -7.1125610517       -1.1210624074      -34.1882363135  SOLV      934             0.0000000000
      2916       945  TIP3      H2             -5.9623100674       -1.0548248708      -33.1893029174  SOLV      934             0.0000000000
      2917       946  TIP3      OH2            -5.4737940134        3.4428586476      -31.9807105293  SOLV      935             0.0000000000
      2918       946  TIP3      H1             -5.6370367367        3.2732913170      -32.9226129312  SOLV      935             0.0000000000
      2919       946  TIP3      H2             -4.5591219096        3.1157874815      -31.8602672847  SOLV      935             0.0000000000
      2920       947  TIP3      OH2            -5.3795186127       -0.7925220289      -29.9696829688  SOLV      936             0.0000000000
      2921       947  TIP3      H1             -5.0397753857       -1.0444452730      -30.8537730895  SOLV      936             0.0000000000
      2922       947  TIP3      H2             -4.9385064263        0.0681641288      -29.8036328244  SOLV      936             0.0000000000
      2923       948  TIP3      OH2             0.0665791171        5.5292056866      -32.0786731364  SOLV      937             0.0000000000
      2924       948  TIP3      H1             -0.2770672333        6.3400027293      -31.6682010540  SOLV      937             0.0000000000
      2925       948  TIP3      H2             -0.2469514325        4.8237304064      -31.4791136187  SOLV      937             0.0000000000
      2926       949  TIP3      OH2            -3.9636798541        4.7615843476      -26.7072840466  SOLV      938             0.0000000000
      2927       949  TIP3      H1             -4.5885046010        5.3684849868      -26.2532264954  SOLV      938             0.0000000000
      2928       949  TIP3      H2             -4.5983634920        4.2319633511      -27.2340965581  SOLV      938             0.0000000000
      2929       950  TIP3      OH2            -6.4138990889        0.2734758322      -25.6621982983  SOLV      939             0.0000000000
      2930       950  TIP3      H1             -6.3554923339        1.1738821424      -25.2802853418  SOLV      939             0.0000000000
      2931       950  TIP3      H2             -7.3605801375        0.0829541315      -25.4936007140  SOLV      939             0.0000000000
      2932       951  TIP3      OH2            -3.1504255294        4.9427741310      -36.6677973567  SOLV      940             0.0000000000
      2933       951  TIP3      H1             -2.3082074100        5.4418775594      -36.6104561461  SOLV      940             0.0000000000
      2934       951  TIP3      H2             -3.7805976341        5.5916165952      -36.3166026589  SOLV      940             0.0000000000
      2935       952  TIP3      OH2            -6.0422023396        6.4007723506      -25.8345336562  SOLV      941             0.0000000000
      2936       952  TIP3      H1             -6.3956654117        6.4543024141      -26.7428530776  SOLV      941             0.0000000000
      2937       952  TIP3      H2             -6.8479926613        6.1892599528      -25.3103571637  SOLV      941             0.0000000000
      2938       953  TIP3      OH2             4.3812771459       -9.7191078639      -38.9016085031  SOLV      942             0.0000000000
      2939       953  TIP3      H1              3.5914093263       -9.4049175390      -38.4105898263  SOLV      942             0.0000000000
      2940       953  TIP3      H2              4.7911873913       -8.8739244397      -39.1761140093  SOLV      942             0.0000000000
      2941       954  TIP3      OH2            -8.0264896480       -2.1289096798      -35.5207738317  SOLV      943             0.0000000000
      2942       954  TIP3      H1             -8.7272963529       -1.6448160576      -36.0091292171  SOLV      943             0.0000000000
      2943       954  TIP3      H2             -8.4602418563       -2.9703174222      -35.3481481143  SOLV      943             0.0000000000
      2944       955  TIP3      OH2           -10.2432327478        1.7779838843      -26.3431138499  SOLV      944             0.0000000000
      2945       955  TIP3      H1            -10.9625455959        1.5844465635      -26.9785037244  SOLV      944             0.0000000000
      2946       955  TIP3      H2             -9.8755405814        0.8938483008      -26.1461846692  SOLV      944             0.0000000000
      2947       956  TIP3      OH2           -11.6869419282        3.7002912642      -30.1154450516  SOLV      945             0.0000000000
      2948       956  TIP3      H1            -10.7245556282        3.6261851384      -30.1794786880  SOLV      945             0.0000000000
      2949       956  TIP3      H2            -11.7780684358        4.4383108808      -29.4933605623  SOLV      945             0.0000000000
      2950       957  TIP3      OH2             6.9332396023        8.2304602789      -29.4763588617  SOLV      946             0.0000000000
      2951       957  TIP3      H1              6.9179378761        7.2694684269      -29.3067580318  SOLV      946             0.0000000000
      2952       957  TIP3      H2              6.1001699865        8.4979637620      -29.0255790363  SOLV      946             0.0000000000
      2953       958  TIP3      OH2            -2.0056860867        6.0321658960      -28.1310781868  SOLV      947             0.0000000000
      2954       958  TIP3      H1             -2.0561101307        6.9617140867      -27.8200753367  SOLV      947             0.0000000000
      2955       958  TIP3      H2             -2.7296667450        5.6252956447      -27.6035000291  SOLV      947             0.0000000000
      2956       959  TIP3      OH2           -10.0257798929        5.8322880391      -34.7617802149  SOLV      948             0.0000000000
      2957       959  TIP3      H1             -9.5446541098        5.7515090190      -33.9062668499  SOLV      948             0.0000000000
      2958       959  TIP3      H2            -10.4822531238        4.9742595231      -34.7848833852  SOLV      948             0.0000000000
      2959       960  TIP3      OH2             5.8172158087       -0.5064486525      -26.7339505374  SOLV      949             0.0000000000
      2960       960  TIP3      H1              4.9684228583       -0.4160826738      -27.1912823016  SOLV      949             0.0000000000
      2961       960  TIP3      H2              5.9805558786       -1.4687602677      -26.8136100931  SOLV      949             0.0000000000
      2962       961  TIP3      OH2            -8.2122002983        3.5987230103      -26.5582828869  SOLV      950             0.0000000000
      2963       961  TIP3      H1             -7.7271047705        3.4458065001      -25.7236356507  SOLV      950             0.0000000000
      2964       961  TIP3      H2             -8.9672185938        2.9795811199      -26.4632532192  SOLV      950             0.0000000000
      2965       962  TIP3      OH2            -4.2221349779       -8.1946771865      -28.6163400523  SOLV      951             0.0000000000
      2966       962  TIP3      H1             -5.1059399302       -8.4800172532      -28.9275376581  SOLV      951             0.0000000000
      2967       962  TIP3      H2             -4.4808251607       -7.3843641935      -28.1321661670  SOLV      951             0.0000000000
      2968       963  TIP3      OH2             1.1524902312       -7.0624282888      -26.6943437082  SOLV      952             0.0000000000
      2969       963  TIP3      H1              1.8476126432       -7.3190598402      -26.0538614266  SOLV      952             0.0000000000
      2970       963  TIP3      H2              0.3253364914       -7.2300399508      -26.1996629507  SOLV      952             0.0000000000
      2971       964  TIP3      OH2             3.4540250882       -2.7430669889      -27.5287021728  SOLV      953             0.0000000000
      2972       964  TIP3      H1              2.9505607969       -2.7638651512      -26.6829501230  SOLV      953             0.0000000000
      2973       964  TIP3      H2              3.2451110242       -1.8550986608      -27.8777203294  SOLV      953             0.0000000000
      2974       965  TIP3      OH2            -3.0451869475       -7.5332949511      -39.1625990072  SOLV      954             0.0000000000
      2975       965  TIP3      H1             -3.2930383710       -7.4649245509      -38.2176663501  SOLV      954             0.0000000000
      2976       965  TIP3      H2             -3.5050514840       -8.3508725674      -39.3881921942  SOLV      954             0.0000000000
      2977       966  TIP3      OH2            -4.9073780626       -3.0083169267      -28.4696835593  SOLV      955             0.0000000000
      2978       966  TIP3      H1             -5.4012715793       -2.7905689587      -27.6518209536  SOLV      955             0.0000000000
      2979       966  TIP3      H2             -5.0602434366       -2.1922614088      -28.9992646963  SOLV      955             0.0000000000
      2980       967  TIP3      OH2            -6.0512393578       -4.1497504226      -33.2922498910  SOLV      956             0.0000000000
      2981       967  TIP3      H1             -6.9842980028       -4.3924442200      -33.1162568328  SOLV      956             0.0000000000
      2982       967  TIP3      H2             -5.9316016301       -4.5625647808      -34.1782133824  SOLV      956             0.0000000000
      2983       968  TIP3      OH2            -1.2304375752       -3.2951639634      -35.8574641917  SOLV      957             0.0000000000
      2984       968  TIP3      H1             -1.6264161829       -2.5782602055      -36.4061493142  SOLV      957             0.0000000000
      2985       968  TIP3      H2             -0.6805559928       -3.7398299804      -36.5385508460  SOLV      957             0.0000000000
      2986       969  TIP3      OH2             0.5934318997       -0.5762791311      -25.2237741824  SOLV      958             0.0000000000
      2987       969  TIP3      H1              0.3751717953       -1.2901634732      -24.5849504031  SOLV      958             0.0000000000
      2988       969  TIP3      H2              1.5249847537       -0.4094839615      -24.9862800466  SOLV      958             0.0000000000
      2989       970  TIP3      OH2             0.3905874985       -2.9934049000      -33.6392548560  SOLV      959             0.0000000000
      2990       970  TIP3      H1             -0.2681460593       -2.7515749455      -34.3267019259  SOLV      959             0.0000000000
      2991       970  TIP3      H2              0.7276901597       -3.8137134639      -34.0607278034  SOLV      959             0.0000000000
      2992       971  TIP3      OH2            -6.6965290027       -2.7467678615      -26.3817744869  SOLV      960             0.0000000000
      2993       971  TIP3      H1             -6.4503719163       -2.0643608325      -25.7379893431  SOLV      960             0.0000000000
      2994       971  TIP3      H2             -6.7686378108       -3.5449287554      -25.8258024942  SOLV      960             0.0000000000
      2995       972  TIP3      OH2            -6.1245983361       -8.5400503786      -39.0854925728  SOLV      961             0.0000000000
      2996       972  TIP3      H1             -6.3300857375       -8.1929685754      -38.1991565431  SOLV      961             0.0000000000
      2997       972  TIP3      H2             -6.5210967554       -7.8766238922      -39.6683045169  SOLV      961             0.0000000000
      2998       973  TIP3      OH2           -10.7657766777       -7.5924487589      -30.5251846063  SOLV      962             0.0000000000
      2999       973  TIP3      H1            -10.0563647181       -7.2053606160      -29.9696995761  SOLV      962             0.0000000000
      3000       973  TIP3      H2            -10.3140080519       -7.7618949275      -31.3632047950  SOLV      962             0.0000000000
      3001       974  TIP3      OH2           -11.2157950093       -7.7060899984      -35.3937974757  SOLV      963             0.0000000000
      3002       974  TIP3      H1            -10.6613177026       -7.3730333355      -36.1302905342  SOLV      963             0.0000000000
      3003       974  TIP3      H2            -11.7482343797       -6.9083145094      -35.2175656083  SOLV      963             0.0000000000
      3004       975  TIP3      OH2             0.5167937022       -0.6037305647      -29.4490678916  SOLV      964             0.0000000000
      3005       975  TIP3      H1              0.8533480964       -1.3145776665      -30.0432314296  SOLV      964             0.0000000000
      3006       975  TIP3      H2              0.1957669906       -1.1493209767      -28.6992095124  SOLV      964             0.0000000000
      3007       976  TIP3      OH2            -2.7321899323       -6.0191349073      -32.7397172459  SOLV      965             0.0000000000
      3008       976  TIP3      H1             -3.5441802182       -5.9823288010      -32.1950395859  SOLV      965             0.0000000000
      3009       976  TIP3      H2             -2.0355750497       -5.9846160877      -32.0627149977  SOLV      965             0.0000000000
      3010       977  TIP3      OH2            -8.4420323793       -5.3634239768      -32.6497399109  SOLV      966             0.0000000000
      3011       977  TIP3      H1             -9.3815155538       -5.2948099471      -32.9448694321  SOLV      966             0.0000000000
      3012       977  TIP3      H2             -8.1999554074       -6.2774246171      -32.8865920944  SOLV      966             0.0000000000
      3013       978  TIP3      OH2            -5.7704950412       -5.4354220834      -35.6577735941  SOLV      967             0.0000000000
      3014       978  TIP3      H1             -4.8468497651       -5.2465054133      -35.9123348945  SOLV      967             0.0000000000
      3015       978  TIP3      H2             -6.2785673265       -5.2583181957      -36.4843798041  SOLV      967             0.0000000000
      3016       979  TIP3      OH2             2.1368151805       -5.1996471782      -30.7413435207  SOLV      968             0.0000000000
      3017       979  TIP3      H1              1.8775629348       -5.0572776942      -29.8001219667  SOLV      968             0.0000000000
      3018       979  TIP3      H2              1.4125163982       -5.7831356198      -31.0303943777  SOLV      968             0.0000000000
      3019       980  TIP3      OH2            -7.4225459542       -5.3078119092      -37.7771597008  SOLV      969             0.0000000000
      3020       980  TIP3      H1             -8.3433945412       -5.5381672317      -37.9763516033  SOLV      969             0.0000000000
      3021       980  TIP3      H2             -7.0970759027       -4.9413831423      -38.6263942995  SOLV      969             0.0000000000
      3022       981  TIP3      OH2             3.8985259327       11.7067340527      -28.4163754382  SOLV      970             0.0000000000
      3023       981  TIP3      H1              3.8857584511       11.9407811812      -29.3625838946  SOLV      970             0.0000000000
      3024       981  TIP3      H2              4.7093273784       12.1652274609      -28.1156315697  SOLV      970             0.0000000000
      3025       982  TIP3      OH2            -6.5599040273        2.7892358411      -24.3321860618  SOLV      971             0.0000000000
      3026       982  TIP3      H1             -5.7810102603        3.0995521423      -23.8300344580  SOLV      971             0.0000000000
      3027       982  TIP3      H2             -7.2267123370        2.7623874618      -23.6151687629  SOLV      971             0.0000000000
      3028       983  TIP3      OH2            -1.9850009655       -2.6732378683      -31.7534232579  SOLV      972             0.0000000000
      3029       983  TIP3      H1             -1.2026821711       -2.9945540179      -32.2263338378  SOLV      972             0.0000000000
      3030       983  TIP3      H2             -1.9052830204       -3.1080365110      -30.8849493514  SOLV      972             0.0000000000
      3031       984  TIP3      OH2            -6.8049289079       -7.7812528142      -32.9126206668  SOLV      973             0.0000000000
      3032       984  TIP3      H1             -7.1462541296       -8.5536016902      -32.4119685778  SOLV      973             0.0000000000
      3033       984  TIP3      H2             -6.4258786976       -8.2055380632      -33.6950282783  SOLV      973             0.0000000000
      3034       985  TIP3      OH2            -2.2036043439       -3.6460911710      -28.8387042258  SOLV      974             0.0000000000
      3035       985  TIP3      H1             -3.1030691405       -3.2832763038      -28.7098471744  SOLV      974             0.0000000000
      3036       985  TIP3      H2             -1.6382266048       -3.0153060808      -28.3501395060  SOLV      974             0.0000000000
      3037       986  TIP3      OH2            -4.5253652332        0.1029462538      -37.6198981768  SOLV      975             0.0000000000
      3038       986  TIP3      H1             -5.3188181550       -0.3264902057      -37.9984253020  SOLV      975             0.0000000000
      3039       986  TIP3      H2             -4.9154719227        0.5144644239      -36.8142709679  SOLV      975             0.0000000000
      3040       987  TIP3      OH2             4.1167149905        2.5341884033      -31.5836166753  SOLV      976             0.0000000000
      3041       987  TIP3      H1              4.3395000889        3.0703896371      -32.3743049291  SOLV      976             0.0000000000
      3042       987  TIP3      H2              3.2755394391        2.1043863906      -31.8590070746  SOLV      976             0.0000000000
      3043       988  TIP3      OH2            -0.3483351443       -6.9354107510      -38.8432642818  SOLV      977             0.0000000000
      3044       988  TIP3      H1             -1.2491904174       -7.1676298349      -39.1386619938  SOLV      977             0.0000000000
      3045       988  TIP3      H2             -0.3533000686       -5.9618759937      -38.8605935787  SOLV      977             0.0000000000
      3046       989  TIP3      OH2            -0.8476483083        3.4045501430      -27.8937142913  SOLV      978             0.0000000000
      3047       989  TIP3      H1             -0.5198389347        3.2711606467      -26.9958977948  SOLV      978             0.0000000000
      3048       989  TIP3      H2             -1.2255442845        4.3010882447      -27.8550510470  SOLV      978             0.0000000000
      3049       990  TIP3      OH2             0.3060744172       -4.4043751011      -37.8194340967  SOLV      979             0.0000000000
      3050       990  TIP3      H1              1.1942119349       -4.6177645820      -37.4913057550  SOLV      979             0.0000000000
      3051       990  TIP3      H2              0.5466277997       -3.6676189971      -38.4278784337  SOLV      979             0.0000000000
      3052       991  TIP3      OH2            -7.9417801559        0.3900398128      -31.1615626314  SOLV      980             0.0000000000
      3053       991  TIP3      H1             -7.5305795067        0.1391928048      -32.0147330266  SOLV      980             0.0000000000
      3054       991  TIP3      H2             -7.4083484921       -0.1170229373      -30.5296820675  SOLV      980             0.0000000000
      3055       992  TIP3      OH2            -9.0405252634       -0.3914337702      -25.0144964020  SOLV      981             0.0000000000
      3056       992  TIP3      H1             -8.8857775173       -0.4930536137      -24.0534716076  SOLV      981             0.0000000000
      3057       992  TIP3      H2             -9.7886177158       -0.9976269397      -25.1470058269  SOLV      981             0.0000000000
      3058       993  TIP3      OH2            -1.7956696298        0.8184163505      -24.8262295776  SOLV      982             0.0000000000
      3059       993  TIP3      H1             -2.4239310471        0.2117064838      -25.2481967972  SOLV      982             0.0000000000
      3060       993  TIP3      H2             -0.9390811998        0.4403360088      -25.1182712963  SOLV      982             0.0000000000
      3061       994  TIP3      OH2             0.7689632364        5.9853760401      -28.9110766690  SOLV      983             0.0000000000
      3062       994  TIP3      H1             -0.1982812588        5.9864217641      -28.8042411784  SOLV      983             0.0000000000
      3063       994  TIP3      H2              1.0374243776        6.5253624765      -28.1374744378  SOLV      983             0.0000000000
      3064       995  TIP3      OH2             7.0542999531        5.3394684375      -29.0935631231  SOLV      984             0.0000000000
      3065       995  TIP3      H1              6.0768300026        5.2684670930      -29.1729879043  SOLV      984             0.0000000000
      3066       995  TIP3      H2              7.3166130451        5.0292616376      -29.9891257240  SOLV      984             0.0000000000
      3067       996  TIP3      OH2             1.8160362846        1.2325790801      -32.4757774760  SOLV      985             0.0000000000
      3068       996  TIP3      H1              0.8800860830        0.9940969319      -32.3203146297  SOLV      985             0.0000000000
      3069       996  TIP3      H2              2.1376492462        0.4172970678      -32.9113653744  SOLV      985             0.0000000000
      3070       997  TIP3      OH2            -6.8510192090        3.5291524324      -34.8123734322  SOLV      986             0.0000000000
      3071       997  TIP3      H1             -6.8839581675        4.2852593019      -35.4304697037  SOLV      986             0.0000000000
      3072       997  TIP3      H2             -7.7724396510        3.2475047321      -34.8210859647  SOLV      986             0.0000000000
      3073       998  TIP3      OH2           -11.2247384636       -3.4613484849      -37.8026788048  SOLV      987             0.0000000000
      3074       998  TIP3      H1            -10.7942701310       -2.6041004452      -37.6093606775  SOLV      987             0.0000000000
      3075       998  TIP3      H2            -12.0051636745       -3.4250973064      -37.2152344162  SOLV      987             0.0000000000
      3076       999  TIP3      OH2            -5.4988714969        1.1732697041      -35.3274003292  SOLV      988             0.0000000000
      3077       999  TIP3      H1             -5.9109858002        2.0539012377      -35.2211727363  SOLV      988             0.0000000000
      3078       999  TIP3      H2             -5.9398069622        0.6632704556      -34.6252442734  SOLV      988             0.0000000000
      3079      1000  TIP3      OH2            -4.1779259381        6.8896147758      -30.2051294704  SOLV      989             0.0000000000
      3080      1000  TIP3      H1             -3.7492019772        7.6041573284      -30.7267944440  SOLV      989             0.0000000000
      3081      1000  TIP3      H2             -3.4094849689        6.5124483356      -29.7508968280  SOLV      989             0.0000000000
      3082      1001  TIP3      OH2            -7.7466367526        5.7932876395      -36.4149790342  SOLV      990             0.0000000000
      3083      1001  TIP3      H1             -8.5659817353        5.9459481902      -35.9042530003  SOLV      990             0.0000000000
      3084      1001  TIP3      H2             -7.3079933401        6.6559148246      -36.3413313439  SOLV      990             0.0000000000
      3085      1002  TIP3      OH2            -0.3824276692        3.2180325203      -30.5667622654  SOLV      991             0.0000000000
      3086      1002  TIP3      H1             -0.4803085059        3.2130804951      -29.5871565581  SOLV      991             0.0000000000
      3087      1002  TIP3      H2              0.4273823502        2.7034140559      -30.6809689977  SOLV      991             0.0000000000
      3088      1003  TIP3      OH2             2.1652184494        8.5508048912      -30.1317254237  SOLV      992             0.0000000000
      3089      1003  TIP3      H1              1.3435544620        8.0198460395      -30.1644567357  SOLV      992             0.0000000000
      3090      1003  TIP3      H2              1.9733901724        9.2250696652      -30.8166412337  SOLV      992             0.0000000000
      3091      1004  TIP3      OH2            -6.9742629864       -5.3447626638      -24.9349066237  SOLV      993             0.0000000000
      3092      1004  TIP3      H1             -7.9274824628       -5.3285752444      -24.7475228145  SOLV      993             0.0000000000
      3093      1004  TIP3      H2             -6.6353132041       -5.8514057790      -24.1779981622  SOLV      993             0.0000000000
      3094      1005  TIP3      OH2            -9.8176030497        5.5054876244      -28.6322349069  SOLV      994             0.0000000000
      3095      1005  TIP3      H1             -9.2442237278        4.7998128680      -28.2886677671  SOLV      994             0.0000000000
      3096      1005  TIP3      H2             -9.5958311019        6.2300828885      -28.0339203329  SOLV      994             0.0000000000
      3097      1006  TIP3      OH2            -7.8700061769        2.1555028597      -38.3339822550  SOLV      995             0.0000000000
      3098      1006  TIP3      H1             -7.0950352566        1.7774455543      -38.7919206044  SOLV      995             0.0000000000
      3099      1006  TIP3      H2             -7.8228882707        3.1005425921      -38.5746216808  SOLV      995             0.0000000000
      3100      1007  TIP3      OH2           -10.1260622164       -1.0334084408      -36.9602069781  SOLV      996             0.0000000000
      3101      1007  TIP3      H1            -10.8035908694       -0.5557870869      -36.4358738400  SOLV      996             0.0000000000
      3102      1007  TIP3      H2             -9.8978928412       -0.3501252709      -37.6182792358  SOLV      996             0.0000000000
      3103      1008  TIP3      OH2             1.4741952180       -4.7217939199      -28.1370975255  SOLV      997             0.0000000000
      3104      1008  TIP3      H1              2.2238697405       -4.2727082676      -27.7106408044  SOLV      997             0.0000000000
      3105      1008  TIP3      H2              1.3329961670       -5.5016183958      -27.5591774000  SOLV      997             0.0000000000
      3106      1009  TIP3      OH2             0.2430677000       -7.3218272060      -36.2363114428  SOLV      998             0.0000000000
      3107      1009  TIP3      H1              0.0218155781       -7.1503518594      -37.1830526609  SOLV      998             0.0000000000
      3108      1009  TIP3      H2              0.5320884084       -6.4368692967      -35.9313695663  SOLV      998             0.0000000000
      3109      1010  TIP3      OH2            -2.9665931205       -5.3590472459      -35.4164792322  SOLV      999             0.0000000000
      3110      1010  TIP3      H1             -2.3747766597       -4.5851482474      -35.5509994704  SOLV      999             0.0000000000
      3111      1010  TIP3      H2             -2.9028007462       -5.4690340279      -34.4431447948  SOLV      999             0.0000000000
      3112      1011  TIP3      OH2            -0.2156360052       -2.2019516065      -27.3706604097  SOLV      1000            0.0000000000
      3113      1011  TIP3      H1              0.0234165871       -1.6529050270      -26.5945064054  SOLV      1000            0.0000000000
      3114      1011  TIP3      H2              0.3063982809       -3.0065824005      -27.2195373593  SOLV      1000            0.0000000000
      3115      1012  TIP3      OH2            -1.5762698234       -8.1955479315      -34.3837685751  SOLV      1001            0.0000000000
      3116      1012  TIP3      H1             -1.6741109316       -7.3963027784      -33.8301589968  SOLV      1001            0.0000000000
      3117      1012  TIP3      H2             -0.8923440696       -7.8845538803      -35.0246573426  SOLV      1001            0.0000000000
      3118      1013  TIP3      OH2            -8.2198414457        4.8827556033      -39.0327972047  SOLV      1002            0.0000000000
      3119      1013  TIP3      H1             -7.8150327547        5.5974379243      -39.5698177044  SOLV      1002            0.0000000000
      3120      1013  TIP3      H2             -8.0723038939        5.2146217485      -38.1221181971  SOLV      1002            0.0000000000
      3121      1014  TIP3      OH2            -6.3472940371       -8.0578721954      -36.3029270656  SOLV      1003            0.0000000000
      3122      1014  TIP3      H1             -6.3809672900       -7.1265584891      -36.0007091977  SOLV      1003            0.0000000000
      3123      1014  TIP3      H2             -5.3773082402       -8.1879325451      -36.3055264920  SOLV      1003            0.0000000000
      3124      1015  TIP3      OH2             6.1222906494       -3.1707817803      -27.5176027106  SOLV      1004            0.0000000000
      3125      1015  TIP3      H1              5.1412848371       -3.1852970715      -27.4602684596  SOLV      1004            0.0000000000
      3126      1015  TIP3      H2              6.2531562073       -3.6100196384      -28.3671526932  SOLV      1004            0.0000000000
      3127      1016  TIP3      OH2             2.6573229821       -1.2023684460      -33.6469829052  SOLV      1005            0.0000000000
      3128      1016  TIP3      H1              1.8788461389       -1.7783161862      -33.5405299741  SOLV      1005            0.0000000000
      3129      1016  TIP3      H2              3.3514512909       -1.6961600977      -33.1618271223  SOLV      1005            0.0000000000
      3130      1017  TIP3      OH2           -10.2145984841        1.0413811188      -38.9863771408  SOLV      1006            0.0000000000
      3131      1017  TIP3      H1             -9.5011303682        1.5874384086      -38.5741191063  SOLV      1006            0.0000000000
      3132      1017  TIP3      H2             -9.7593251492        0.8069164215      -39.8053048175  SOLV      1006            0.0000000000
      3133      1018  TIP3      OH2           -10.6021977206       -6.0838568181      -37.5888991650  SOLV      1007            0.0000000000
      3134      1018  TIP3      H1            -10.7315852325       -5.1113601251      -37.6653173074  SOLV      1007            0.0000000000
      3135      1018  TIP3      H2            -11.2284315211       -6.4008272608      -38.2477301564  SOLV      1007            0.0000000000
      3136      1019  TIP3      OH2             2.2715171049        8.4566413002      -34.2275025028  SOLV      1008            0.0000000000
      3137      1019  TIP3      H1              1.7390052303        8.3145659305      -35.0265561652  SOLV      1008            0.0000000000
      3138      1019  TIP3      H2              3.1526561763        8.6790335420      -34.5921974109  SOLV      1008            0.0000000000
      3139      1020  TIP3      OH2            -6.8809888025       -8.9841586123      -28.9349714948  SOLV      1009            0.0000000000
      3140      1020  TIP3      H1             -7.1678244272       -9.3351749009      -29.8043273574  SOLV      1009            0.0000000000
      3141      1020  TIP3      H2             -6.9837168133       -9.7639595052      -28.3539737850  SOLV      1009            0.0000000000
      3142      1021  TIP3      OH2           -11.4991023128        3.1394999593      -35.1253178877  SOLV      1010            0.0000000000
      3143      1021  TIP3      H1            -12.1127546915        3.4708657845      -34.4552856127  SOLV      1010            0.0000000000
      3144      1021  TIP3      H2            -11.8431229395        3.5853998341      -35.9367326761  SOLV      1010            0.0000000000
      3145      1022  TIP3      OH2            -9.8803850546        8.7108583237      -24.4167978291  SOLV      1011            0.0000000000
      3146      1022  TIP3      H1             -9.0256139279        8.7085589082      -23.9320076670  SOLV      1011            0.0000000000
      3147      1022  TIP3      H2            -10.1041342741        7.7650388380      -24.3940594595  SOLV      1011            0.0000000000
      3148      1023  TIP3      OH2            -5.1299853663        8.2280363341      -23.9548319894  SOLV      1012            0.0000000000
      3149      1023  TIP3      H1             -4.1842951257        8.0329163212      -23.8994846962  SOLV      1012            0.0000000000
      3150      1023  TIP3      H2             -5.4050707568        7.5983827395      -24.6527016417  SOLV      1012            0.0000000000
      3151      1024  TIP3      OH2             1.2837031542        7.3541672428      -26.5871276570  SOLV      1013            0.0000000000
      3152      1024  TIP3      H1              1.2166817152        6.6553627485      -25.8948720480  SOLV      1013            0.0000000000
      3153      1024  TIP3      H2              2.0550834110        7.8695901378      -26.2819409544  SOLV      1013            0.0000000000
      3154      1025  TIP3      OH2            -8.5651909226        2.7249669276      -22.4113496817  SOLV      1014            0.0000000000
      3155      1025  TIP3      H1             -8.5037015455        1.7763051273      -22.2078232035  SOLV      1014            0.0000000000
      3156      1025  TIP3      H2             -9.4618472094        2.7742139060      -22.8106885136  SOLV      1014            0.0000000000
      3157      1026  TIP3      OH2            -2.5335966471        3.5886186647      -24.6460626959  SOLV      1015            0.0000000000
      3158      1026  TIP3      H1             -2.9565616369        3.8072958793      -25.5023969559  SOLV      1015            0.0000000000
      3159      1026  TIP3      H2             -2.2382140367        2.6638135607      -24.7786016038  SOLV      1015            0.0000000000
      3160      1027  TIP3      OH2             2.3876985661        3.6903781027      -28.5592579133  SOLV      1016            0.0000000000
      3161      1027  TIP3      H1              3.1510018981        4.1184404903      -28.9907705747  SOLV      1016            0.0000000000
      3162      1027  TIP3      H2              1.6958195106        4.3651924064      -28.7128632910  SOLV      1016            0.0000000000
      3163      1028  TIP3      OH2            -7.3532521881        0.0259552949      -22.5373590817  SOLV      1017            0.0000000000
      3164      1028  TIP3      H1             -6.5431855018       -0.4288240799      -22.7915154338  SOLV      1017            0.0000000000
      3165      1028  TIP3      H2             -7.0990381661        0.3997314265      -21.6673144976  SOLV      1017            0.0000000000
      3166      1029  TIP3      OH2            -6.5340387907       -1.8833354728      -38.0566479769  SOLV      1018            0.0000000000
      3167      1029  TIP3      H1             -6.9659111819       -2.0989030638      -37.2146008279  SOLV      1018            0.0000000000
      3168      1029  TIP3      H2             -6.5852593733       -2.7083606226      -38.5586166511  SOLV      1018            0.0000000000
      3169      1030  TIP3      OH2            -4.0460634273       -1.1267734373      -25.9483980490  SOLV      1019            0.0000000000
      3170      1030  TIP3      H1             -4.8355779664       -0.5425126343      -25.9512046946  SOLV      1019            0.0000000000
      3171      1030  TIP3      H2             -3.5316914320       -0.7671759353      -26.7091606582  SOLV      1019            0.0000000000
      3172      1031  TIP3      OH2            -6.1329336020       -4.1597958543      -39.9103046307  SOLV      1020            0.0000000000
      3173      1031  TIP3      H1             -6.1300519344       -4.7047244319      -40.7096447636  SOLV      1020            0.0000000000
      3174      1031  TIP3      H2             -5.3781817579       -3.5603543777      -40.0904888734  SOLV      1020            0.0000000000
      3175      1032  TIP3      OH2             1.1191859266        2.9068506367      -24.6174189864  SOLV      1021            0.0000000000
      3176      1032  TIP3      H1              1.8887231424        2.5686020029      -25.0913852212  SOLV      1021            0.0000000000
      3177      1032  TIP3      H2              1.0409613221        2.2733735390      -23.8804007437  SOLV      1021            0.0000000000
      3178      1033  TIP3      OH2            -2.8088370933       -3.2117688250      -24.7231971421  SOLV      1022            0.0000000000
      3179      1033  TIP3      H1             -2.8103270802       -3.9899387250      -25.3154159136  SOLV      1022            0.0000000000
      3180      1033  TIP3      H2             -3.2547873124       -2.5312863379      -25.2774054922  SOLV      1022            0.0000000000
      3181      1034  TIP3      OH2            -2.7911301021       -5.3623240537      -26.6056762081  SOLV      1023            0.0000000000
      3182      1034  TIP3      H1             -2.5081504137       -4.9275486310      -27.4341208041  SOLV      1023            0.0000000000
      3183      1034  TIP3      H2             -3.7274988716       -5.5772470508      -26.8026188833  SOLV      1023            0.0000000000
      3184      1035  TIP3      OH2            -2.5748833476       -0.0313961927      -27.8932082491  SOLV      1024            0.0000000000
      3185      1035  TIP3      H1             -1.7067251268        0.1768978945      -28.2613730615  SOLV      1024            0.0000000000
      3186      1035  TIP3      H2             -3.1513701553        0.6192684985      -28.3502000389  SOLV      1024            0.0000000000
      3187      1036  TIP3      OH2             3.2474765504       -0.3759771861      -24.1176948631  SOLV      1025            0.0000000000
      3188      1036  TIP3      H1              3.7547419008       -1.1870279138      -23.9577342409  SOLV      1025            0.0000000000
      3189      1036  TIP3      H2              3.9289104945        0.2221102351      -24.4569764609  SOLV      1025            0.0000000000
      3190      1037  TIP3      OH2             3.6824677856        2.1837354496      -26.7302733043  SOLV      1026            0.0000000000
      3191      1037  TIP3      H1              3.1020685356        2.7403206376      -27.3026158620  SOLV      1026            0.0000000000
      3192      1037  TIP3      H2              4.5603909115        2.4095281071      -27.1119456726  SOLV      1026            0.0000000000
      3193      1038  TIP3      OH2            -4.0209440902       -2.1861880710      -22.3513006522  SOLV      1027            0.0000000000
      3194      1038  TIP3      H1             -4.7126178754       -2.8582070062      -22.1864147663  SOLV      1027            0.0000000000
      3195      1038  TIP3      H2             -3.7106536205       -2.4375235453      -23.2431953140  SOLV      1027            0.0000000000
      3196      1039  TIP3      OH2            -1.4845952025       -7.7561535111      -25.9022363916  SOLV      1028            0.0000000000
      3197      1039  TIP3      H1             -1.9815000344       -6.9430783004      -26.1374698509  SOLV      1028            0.0000000000
      3198      1039  TIP3      H2             -2.1705300136       -8.4450112772      -26.0123278829  SOLV      1028            0.0000000000
      3199      1040  TIP3      OH2            -0.2153573840       -2.7418927471      -23.7651312607  SOLV      1029            0.0000000000
      3200      1040  TIP3      H1             -0.3731479563       -2.8857058859      -22.8134243934  SOLV      1029            0.0000000000
      3201      1040  TIP3      H2             -1.1095566570       -2.9575807929      -24.1075313596  SOLV      1029            0.0000000000
      3202      1041  TIP3      OH2             2.1360741113       -3.2399908233      -25.2344927603  SOLV      1030            0.0000000000
      3203      1041  TIP3      H1              1.4088983558       -3.1965145349      -24.5813246945  SOLV      1030            0.0000000000
      3204      1041  TIP3      H2              2.8977257169       -3.5061086145      -24.6762775791  SOLV      1030            0.0000000000
      3205      1042  TIP3      OH2             4.4207021965       -3.7855747856      -23.7418194098  SOLV      1031            0.0000000000
      3206      1042  TIP3      H1              4.5784157585       -4.7408105331      -23.5867459979  SOLV      1031            0.0000000000
      3207      1042  TIP3      H2              4.4049608302       -3.4229738482      -22.8315622552  SOLV      1031            0.0000000000
      3208      1043  TIP3      OH2            -5.6762486679       -4.3704211285      -21.8030727834  SOLV      1032            0.0000000000
      3209      1043  TIP3      H1             -5.6118292805       -5.2961063548      -22.1028903187  SOLV      1032            0.0000000000
      3210      1043  TIP3      H2             -5.2945622664       -4.4448888928      -20.9031577057  SOLV      1032            0.0000000000
      3211      1044  TIP3      OH2            -0.5631322469       -7.6546603962      -23.3150479445  SOLV      1033            0.0000000000
      3212      1044  TIP3      H1              0.1022077798       -8.3676024833      -23.3889050115  SOLV      1033            0.0000000000
      3213      1044  TIP3      H2             -0.9549323346       -7.6869129945      -24.2111704032  SOLV      1033            0.0000000000
      3214      1045  TIP3      OH2             0.1237633153       -5.4965411855      -21.7419254915  SOLV      1034            0.0000000000
      3215      1045  TIP3      H1             -0.0906664152       -6.2075713677      -22.3843792463  SOLV      1034            0.0000000000
      3216      1045  TIP3      H2             -0.6643094673       -4.9160847235      -21.8060804667  SOLV      1034            0.0000000000
      3217      1046  TIP3      OH2           -12.8896418703        0.6299857309      -38.5782576768  SOLV      1035            0.0000000000
      3218      1046  TIP3      H1            -11.9649687305        0.9504381601      -38.6850384229  SOLV      1035            0.0000000000
      3219      1046  TIP3      H2            -12.8955240116       -0.0600612091      -39.2542659269  SOLV      1035            0.0000000000
      3220      1047  TIP3      OH2           -13.6943967153        6.7533825990      -34.4503698026  SOLV      1036            0.0000000000
      3221      1047  TIP3      H1            -14.3373639404        6.1186394247      -34.8342042004  SOLV      1036            0.0000000000
      3222      1047  TIP3      H2            -13.2428377327        6.1717144985      -33.7987850341  SOLV      1036            0.0000000000
      3223      1048  TIP3      OH2           -12.3786638331        5.2048083794      -32.5754328775  SOLV      1037            0.0000000000
      3224      1048  TIP3      H1            -12.4782695377        4.4983943822      -31.9134165738  SOLV      1037            0.0000000000
      3225      1048  TIP3      H2            -11.8303711822        5.8273312351      -32.0630576139  SOLV      1037            0.0000000000
      3226      1049  TIP3      OH2             4.9767045351        9.3180764904      -34.5479140467  SOLV      1038            0.0000000000
      3227      1049  TIP3      H1              5.0109135895        9.3397280060      -33.5700800039  SOLV      1038            0.0000000000
      3228      1049  TIP3      H2              5.7409171688        9.8653900781      -34.7637954408  SOLV      1038            0.0000000000
      3229      1050  TIP3      OH2             5.1802219293        9.3799082226      -31.7891951993  SOLV      1039            0.0000000000
      3230      1050  TIP3      H1              4.7238207226        8.5120270252      -31.7029045156  SOLV      1039            0.0000000000
      3231      1050  TIP3      H2              5.9779920996        9.1972250306      -31.2666825688  SOLV      1039            0.0000000000
      3232      1051  TIP3      OH2             5.6661529075        6.2081547479      -26.0295505496  SOLV      1040            0.0000000000
      3233      1051  TIP3      H1              4.9530162867        6.3174507344      -25.3678039231  SOLV      1040            0.0000000000
      3234      1051  TIP3      H2              6.1019300773        7.0840213436      -25.9915677922  SOLV      1040            0.0000000000
      3235      1052  TIP3      OH2             5.6183292007        3.9611411401      -33.3885627982  SOLV      1041            0.0000000000
      3236      1052  TIP3      H1              6.1245967339        3.2393611623      -33.8149782310  SOLV      1041            0.0000000000
      3237      1052  TIP3      H2              5.6707913327        4.6648714681      -34.0612864102  SOLV      1041            0.0000000000
      3238      1053  TIP3      OH2             3.9335241164        6.9511220248      -31.5536034698  SOLV      1042            0.0000000000
      3239      1053  TIP3      H1              3.2101744725        7.3465520219      -31.0250775219  SOLV      1042            0.0000000000
      3240      1053  TIP3      H2              3.4364907031        6.4824194787      -32.2601868807  SOLV      1042            0.0000000000
      3241      1054  TIP3      OH2             3.3271861853       -1.5592958037      -36.2934115896  SOLV      1043            0.0000000000
      3242      1054  TIP3      H1              3.0650331484       -2.4933670861      -36.2565178315  SOLV      1043            0.0000000000
      3243      1054  TIP3      H2              3.1302486159       -1.2657106601      -35.3783291159  SOLV      1043            0.0000000000
      3244      1055  TIP3      OH2           -10.5163980245       -0.7140619089      -28.8651158264  SOLV      1044            0.0000000000
      3245      1055  TIP3      H1            -10.5398278205       -1.0273218642      -29.7912836635  SOLV      1044            0.0000000000
      3246      1055  TIP3      H2             -9.5426619561       -0.6861657063      -28.7079094784  SOLV      1044            0.0000000000
      3247      1056  TIP3      OH2             6.1566122964        2.8482364370      -27.7701709746  SOLV      1045            0.0000000000
      3248      1056  TIP3      H1              6.8591780548        2.1703861320      -27.8874305420  SOLV      1045            0.0000000000
      3249      1056  TIP3      H2              6.4035923102        3.5201531231      -28.4251497410  SOLV      1045            0.0000000000
      3250      1057  TIP3      OH2             7.9642731621        0.8247378416      -27.7334113923  SOLV      1046            0.0000000000
      3251      1057  TIP3      H1              7.2251742930        0.3419648983      -27.3028727297  SOLV      1046            0.0000000000
      3252      1057  TIP3      H2              8.7018637691        0.2036733548      -27.5490784247  SOLV      1046            0.0000000000
      3253      1058  TIP3      OH2             3.0497765274       -4.3490425874      -37.0677746991  SOLV      1047            0.0000000000
      3254      1058  TIP3      H1              3.5715823024       -5.1876466618      -37.0325414310  SOLV      1047            0.0000000000
      3255      1058  TIP3      H2              3.4243485358       -3.9275432956      -37.8567457606  SOLV      1047            0.0000000000
      3256      1059  TIP3      OH2             4.7340219580       -2.6101894389      -32.4124536080  SOLV      1048            0.0000000000
      3257      1059  TIP3      H1              5.5951857861       -2.3555165666      -32.8162582893  SOLV      1048            0.0000000000
      3258      1059  TIP3      H2              4.8710223207       -2.2215921890      -31.5257602407  SOLV      1048            0.0000000000
      3259      1060  TIP3      OH2             5.5040317405       -1.0952700360      -30.1705248602  SOLV      1049            0.0000000000
      3260      1060  TIP3      H1              4.7476086517       -0.7457680431      -29.6615731344  SOLV      1049            0.0000000000
      3261      1060  TIP3      H2              5.8385142258       -0.2809221765      -30.6059485187  SOLV      1049            0.0000000000
      3262      1061  TIP3      OH2            -8.3289623947       -3.9364092036      -22.3260924532  SOLV      1050            0.0000000000
      3263      1061  TIP3      H1             -7.3595972386       -3.9257867099      -22.1696583221  SOLV      1050            0.0000000000
      3264      1061  TIP3      H2             -8.5714387030       -4.7592639808      -21.8530614479  SOLV      1050            0.0000000000
      3265      1062  TIP3      OH2             9.9217808080       -5.1883114078      -24.6314927149  SOLV      1051            0.0000000000
      3266      1062  TIP3      H1             10.6190955223       -5.7727493340      -24.9977772630  SOLV      1051            0.0000000000
      3267      1062  TIP3      H2              9.6950126052       -4.6280107147      -25.4014498274  SOLV      1051            0.0000000000
      3268      1063  TIP3      OH2             4.1931778335       -6.7875776656      -37.0715154468  SOLV      1052            0.0000000000
      3269      1063  TIP3      H1              4.7723430493       -6.9387045421      -36.2955767371  SOLV      1052            0.0000000000
      3270      1063  TIP3      H2              3.5931830045       -7.5606153750      -37.0065147742  SOLV      1052            0.0000000000
      3271      1064  TIP3      OH2            -8.7253046462       -6.8922261419      -28.7937255146  SOLV      1053            0.0000000000
      3272      1064  TIP3      H1             -8.0969914149       -7.6397815786      -28.7361960238  SOLV      1053            0.0000000000
      3273      1064  TIP3      H2             -8.1080793199       -6.1464125256      -28.9049852086  SOLV      1053            0.0000000000
      3274      1065  TIP3      OH2           -10.7333724588       -4.2007931878      -28.1153228234  SOLV      1054            0.0000000000
      3275      1065  TIP3      H1            -10.2035998391       -4.1562475309      -28.9373036819  SOLV      1054            0.0000000000
      3276      1065  TIP3      H2            -10.5413355504       -3.3424785260      -27.7147775762  SOLV      1054            0.0000000000
      3277      1066  TIP3      OH2             8.7093495048       -3.7690326871      -26.6181559687  SOLV      1055            0.0000000000
      3278      1066  TIP3      H1              7.8727764035       -3.3321072010      -26.3614794009  SOLV      1055            0.0000000000
      3279      1066  TIP3      H2              8.3541087377       -4.5171536706      -27.1382483939  SOLV      1055            0.0000000000
      3280      1067  TIP3      OH2           -10.8238141997       -9.1590739104      -33.1405264715  SOLV      1056            0.0000000000
      3281      1067  TIP3      H1            -11.7366696241       -9.1767418189      -32.8151829682  SOLV      1056            0.0000000000
      3282      1067  TIP3      H2            -10.8896058749       -8.5465073323      -33.9039258422  SOLV      1056            0.0000000000
      3283      1068  TIP3      OH2            -8.6341928968       -8.3744178124      -24.9727965038  SOLV      1057            0.0000000000
      3284      1068  TIP3      H1             -9.1189633107       -8.3528067195      -24.1312021479  SOLV      1057            0.0000000000
      3285      1068  TIP3      H2             -9.2894616483       -7.9783504932      -25.5773776719  SOLV      1057            0.0000000000
      3286      1069  TIP3      OH2            -8.2483663008        5.9776701836      -24.1915196358  SOLV      1058            0.0000000000
      3287      1069  TIP3      H1             -9.1843592066        5.7510153840      -24.3521082372  SOLV      1058            0.0000000000
      3288      1069  TIP3      H2             -8.1534856567        5.7573317478      -23.2559234491  SOLV      1058            0.0000000000
      3289      1070  TIP3      OH2            -6.4259541360        6.3295554187      -28.7089086381  SOLV      1059            0.0000000000
      3290      1070  TIP3      H1             -6.9021294056        7.0856682389      -29.1103579850  SOLV      1059            0.0000000000
      3291      1070  TIP3      H2             -5.5740987526        6.4441594242      -29.1803772396  SOLV      1059            0.0000000000
      3292      1071  TIP3      OH2            -2.0645219891        8.7133658485      -27.3448052797  SOLV      1060            0.0000000000
      3293      1071  TIP3      H1             -1.6391667719        8.6947433380      -26.4594437562  SOLV      1060            0.0000000000
      3294      1071  TIP3      H2             -1.4238229070        9.2658907261      -27.8399829136  SOLV      1060            0.0000000000
      3295      1072  TIP3      OH2            -0.3071254519       10.3200585551      -28.7016570013  SOLV      1061            0.0000000000
      3296      1072  TIP3      H1              0.3331982488        9.7778941637      -29.1831565819  SOLV      1061            0.0000000000
      3297      1072  TIP3      H2              0.2825497111       10.8355644279      -28.1066979193  SOLV      1061            0.0000000000
      3298      1073  TIP3      OH2             7.7291214780       -6.1593825414      -27.7483794718  SOLV      1062            0.0000000000
      3299      1073  TIP3      H1              6.8285029528       -6.2628062411      -28.0986039373  SOLV      1062            0.0000000000
      3300      1073  TIP3      H2              8.0719733564       -7.0790540825      -27.8277832718  SOLV      1062            0.0000000000
      3301      1074  TIP3      OH2            -9.7220402333        8.8802216897      -28.4866828652  SOLV      1063            0.0000000000
      3302      1074  TIP3      H1            -10.6297148031        9.2083679961      -28.6767462000  SOLV      1063            0.0000000000
      3303      1074  TIP3      H2             -9.5786639643        9.2672641744      -27.6138667036  SOLV      1063            0.0000000000
      3304      1075  TIP3      OH2            -7.3265149660        8.6751127054      -29.8374701839  SOLV      1064            0.0000000000
      3305      1075  TIP3      H1             -8.2063537933        8.7788337580      -29.4106929795  SOLV      1064            0.0000000000
      3306      1075  TIP3      H2             -7.5367827396        8.9181509885      -30.7608496978  SOLV      1064            0.0000000000
      3307      1076  TIP3      OH2            -3.0433128801        8.8543227765      -31.7173317328  SOLV      1065            0.0000000000
      3308      1076  TIP3      H1             -3.8200858523        9.0339226684      -32.2896165297  SOLV      1065            0.0000000000
      3309      1076  TIP3      H2             -2.8926775819        9.7449541340      -31.3485889591  SOLV      1065            0.0000000000
      3310      1077  TIP3      OH2            -0.3650608268        8.2688249494      -31.3234134292  SOLV      1066            0.0000000000
      3311      1077  TIP3      H1             -1.3264000561        8.3415923390      -31.5038389713  SOLV      1066            0.0000000000
      3312      1077  TIP3      H2             -0.0115468883        8.7230438195      -32.0995249704  SOLV      1066            0.0000000000
      3313      1078  TIP3      OH2             1.8362322985       10.3317423900      -32.2503032850  SOLV      1067            0.0000000000
      3314      1078  TIP3      H1              1.5792429686       11.0967432768      -32.7988189736  SOLV      1067            0.0000000000
      3315      1078  TIP3      H2              1.9940245840        9.6442624142      -32.9362836489  SOLV      1067            0.0000000000
      3316      1079  TIP3      OH2           -10.6136515343        6.7612321946      -31.0040974360  SOLV      1068            0.0000000000
      3317      1079  TIP3      H1            -10.3175966078        6.4793197945      -30.1110243918  SOLV      1068            0.0000000000
      3318      1079  TIP3      H2             -9.9068962233        6.3241528532      -31.5344535271  SOLV      1068            0.0000000000
      3319      1080  TIP3      OH2            -8.7230924763        5.4531195857      -32.4128688436  SOLV      1069            0.0000000000
      3320      1080  TIP3      H1             -8.5639501176        4.6107967183      -31.9246764760  SOLV      1069            0.0000000000
      3321      1080  TIP3      H2             -7.8089651502        5.8247230238      -32.4069566482  SOLV      1069            0.0000000000
      3322      1081  TIP3      OH2            -6.1543987261        6.3343060162      -32.2272687896  SOLV      1070            0.0000000000
      3323      1081  TIP3      H1             -5.6955169562        5.5174758342      -32.4736130970  SOLV      1070            0.0000000000
      3324      1081  TIP3      H2             -5.5511055133        6.6769048482      -31.5455791637  SOLV      1070            0.0000000000
      3325      1082  TIP3      OH2            -0.2005036643       -6.9931027452      -31.5020674783  SOLV      1071            0.0000000000
      3326      1082  TIP3      H1             -0.6447818733       -7.7096826744      -31.0164775198  SOLV      1071            0.0000000000
      3327      1082  TIP3      H2              0.5352568335       -7.4574983843      -31.9454337013  SOLV      1071            0.0000000000
      3328      1083  TIP3      OH2             4.9659103332       -8.2044249286      -32.5548496181  SOLV      1072            0.0000000000
      3329      1083  TIP3      H1              5.2972912620       -7.6134144506      -33.2648816179  SOLV      1072            0.0000000000
      3330      1083  TIP3      H2              4.0153781202       -7.9819212713      -32.5447947300  SOLV      1072            0.0000000000
      3331      1084  TIP3      OH2             5.9038080490       -7.1122632703      -34.9165001102  SOLV      1073            0.0000000000
      3332      1084  TIP3      H1              6.6210197141       -7.6928665579      -35.2427114356  SOLV      1073            0.0000000000
      3333      1084  TIP3      H2              6.2813393216       -6.2251610020      -35.0961075185  SOLV      1073            0.0000000000
      3334      1085  TIP3      OH2            -7.7636451420       -9.9392556424      -31.4057174567  SOLV      1074            0.0000000000
      3335      1085  TIP3      H1             -8.6922337581      -10.2487247348      -31.3533617519  SOLV      1074            0.0000000000
      3336      1085  TIP3      H2             -7.2928887092      -10.7995772020      -31.4513072239  SOLV      1074            0.0000000000
      3337      1086  TIP3      OH2            -9.9633581241      -11.2202629309      -34.8778752760  SOLV      1075            0.0000000000
      3338      1086  TIP3      H1             -9.4796120686      -10.6987141918      -35.5637915891  SOLV      1075            0.0000000000
      3339      1086  TIP3      H2            -10.1443380059      -10.5169791997      -34.2186028304  SOLV      1075            0.0000000000
      3340      1087  TIP3      OH2            -3.2567512070       -9.6329044251      -32.5617194924  SOLV      1076            0.0000000000
      3341      1087  TIP3      H1             -2.7296822309       -9.1436419996      -33.2173537595  SOLV      1076            0.0000000000
      3342      1087  TIP3      H2             -3.0021139878       -9.1917169976      -31.7379996742  SOLV      1076            0.0000000000
      3343      1088  TIP3      OH2             2.1237732496       -8.1100196953      -32.7488622226  SOLV      1077            0.0000000000
      3344      1088  TIP3      H1              2.1289756123       -8.5069660808      -33.6289444643  SOLV      1077            0.0000000000
      3345      1088  TIP3      H2              2.0151699783       -8.9047748357      -32.1740141017  SOLV      1077            0.0000000000
      3346      1089  TIP3      OH2             2.4334238867       -8.8867807451      -37.0520896533  SOLV      1078            0.0000000000
      3347      1089  TIP3      H1              1.5884473327       -8.4177798159      -36.8925808387  SOLV      1078            0.0000000000
      3348      1089  TIP3      H2              2.2577105476       -9.7317405409      -36.5869375337  SOLV      1078            0.0000000000
      3349      1090  TIP3      OH2           -12.7720968953        4.4584275027      -37.0741259503  SOLV      1079            0.0000000000
      3350      1090  TIP3      H1            -13.5917358481        4.1010021417      -37.4436983008  SOLV      1079            0.0000000000
      3351      1090  TIP3      H2            -12.8090425474        5.3721294482      -37.4054089834  SOLV      1079            0.0000000000
      3352      1091  TIP3      OH2            -8.5877797045       -9.7885411132      -36.7005775086  SOLV      1080            0.0000000000
      3353      1091  TIP3      H1             -8.4620555700      -10.0297031385      -37.6263270485  SOLV      1080            0.0000000000
      3354      1091  TIP3      H2             -7.8502414588       -9.1631777529      -36.5511299473  SOLV      1080            0.0000000000
      3355      1092  TIP3      OH2            -3.5547851605       -7.8286815724      -36.3735725751  SOLV      1081            0.0000000000
      3356      1092  TIP3      H1             -2.9732099124       -8.3038879775      -35.7548362455  SOLV      1081            0.0000000000
      3357      1092  TIP3      H2             -3.3584625864       -6.9079153431      -36.0841116281  SOLV      1081            0.0000000000
      3358      1093  TIP3      OH2            -5.6680311433       -7.1346280896      -22.5249696406  SOLV      1082            0.0000000000
      3359      1093  TIP3      H1             -6.0513555611       -7.8145603746      -21.9416010619  SOLV      1082            0.0000000000
      3360      1093  TIP3      H2             -4.7356315604       -7.1408793987      -22.2116849619  SOLV      1082            0.0000000000
      3361      1094  TIP3      OH2            -3.1767207623       -7.1458248814      -21.3031172268  SOLV      1083            0.0000000000
      3362      1094  TIP3      H1             -2.3102716565       -7.3799941420      -21.6765280164  SOLV      1083            0.0000000000
      3363      1094  TIP3      H2             -3.2936145060       -7.8455281206      -20.6277537246  SOLV      1083            0.0000000000
      3364      1095  TIP3      OH2             5.1078583907       -6.4870614717      -23.4226830291  SOLV      1084            0.0000000000
      3365      1095  TIP3      H1              5.2804139510       -6.7965937352      -22.5066106334  SOLV      1084            0.0000000000
      3366      1095  TIP3      H2              6.0075370749       -6.5298654550      -23.8135326521  SOLV      1084            0.0000000000
      3367      1096  TIP3      OH2             4.4485760124        9.0045752405      -28.5221450448  SOLV      1085            0.0000000000
      3368      1096  TIP3      H1              3.6512928778        8.7068914505      -29.0066584667  SOLV      1085            0.0000000000
      3369      1096  TIP3      H2              4.2382554952        9.9519522956      -28.3962823323  SOLV      1085            0.0000000000
      3370      1097  TIP3      OH2             9.9788500755        1.6152544269      -33.1936983239  SOLV      1086            0.0000000000
      3371      1097  TIP3      H1             10.2872976324        0.9598076681      -32.5351077185  SOLV      1086            0.0000000000
      3372      1097  TIP3      H2             10.7959698631        2.0806369615      -33.3941774645  SOLV      1086            0.0000000000
      3373      1098  TIP3      OH2             7.8328229702        0.7477269488      -36.3538259434  SOLV      1087            0.0000000000
      3374      1098  TIP3      H1              7.7343525886       -0.1921370038      -36.1087098788  SOLV      1087            0.0000000000
      3375      1098  TIP3      H2              7.0434612902        0.9181011943      -36.9064839686  SOLV      1087            0.0000000000
      3376      1099  TIP3      OH2             8.8362348257       -1.6761249595      -35.3482956524  SOLV      1088            0.0000000000
      3377      1099  TIP3      H1              9.7411959210       -1.7237569928      -34.9864716888  SOLV      1088            0.0000000000
      3378      1099  TIP3      H2              9.0118819426       -1.8765622233      -36.2859691749  SOLV      1088            0.0000000000
      3379      1100  TIP3      OH2            12.5626624465       -3.5644207585      -32.2139644503  SOLV      1089            0.0000000000
      3380      1100  TIP3      H1             11.9622612052       -3.1872875628      -32.8790458196  SOLV      1089            0.0000000000
      3381      1100  TIP3      H2             12.0484421190       -3.4020787073      -31.3948611866  SOLV      1089            0.0000000000
      3382      1101  TIP3      OH2            13.8303441842        4.4420819230      -34.0909751331  SOLV      1090            0.0000000000
      3383      1101  TIP3      H1             13.0353388853        4.8708779576      -33.6999757508  SOLV      1090            0.0000000000
      3384      1101  TIP3      H2             14.5212545416        5.0646494909      -33.7973424570  SOLV      1090            0.0000000000
      3385      1102  TIP3      OH2            11.3730153817       -2.4928775465      -34.5245972981  SOLV      1091            0.0000000000
      3386      1102  TIP3      H1             11.8843758252       -1.7248239027      -34.1700614978  SOLV      1091            0.0000000000
      3387      1102  TIP3      H2             12.0110125573       -2.8256198843      -35.1723933972  SOLV      1091            0.0000000000
      3388      1103  TIP3      OH2            11.8098938011        6.0755987216      -33.2974685530  SOLV      1092            0.0000000000
      3389      1103  TIP3      H1             11.5514907067        6.9449323799      -33.6565413989  SOLV      1092            0.0000000000
      3390      1103  TIP3      H2             11.0265893883        5.9204599912      -32.7236192349  SOLV      1092            0.0000000000
      3391      1104  TIP3      OH2            16.0908351542       -6.6225441371      -34.9067808841  SOLV      1093            0.0000000000
      3392      1104  TIP3      H1             15.8091481295       -7.5325172645      -34.6884764258  SOLV      1093            0.0000000000
      3393      1104  TIP3      H2             15.3307725163       -6.1078769607      -34.5695051448  SOLV      1093            0.0000000000
      3394      1105  TIP3      OH2            13.2220360916        1.7621688802      -35.0531857329  SOLV      1094            0.0000000000
      3395      1105  TIP3      H1             12.3056189351        1.7000397003      -35.4255964505  SOLV      1094            0.0000000000
      3396      1105  TIP3      H2             13.2792378176        2.6635413960      -34.6912571192  SOLV      1094            0.0000000000
      3397      1106  TIP3      OH2            13.7667890173        7.2080369103      -31.6876032551  SOLV      1095            0.0000000000
      3398      1106  TIP3      H1             13.2114747979        7.8637589804      -31.2112712314  SOLV      1095            0.0000000000
      3399      1106  TIP3      H2             13.0782389618        6.7259121340      -32.1827179379  SOLV      1095            0.0000000000
      3400      1107  TIP3      OH2            11.5680662250        2.9689850823      -30.8260558256  SOLV      1096            0.0000000000
      3401      1107  TIP3      H1             11.5944508669        3.8178629570      -30.3396346724  SOLV      1096            0.0000000000
      3402      1107  TIP3      H2             10.6379347870        2.7071032827      -30.6752790574  SOLV      1096            0.0000000000
      3403      1108  TIP3      OH2            11.8624049210        9.0194492967      -30.8944973331  SOLV      1097            0.0000000000
      3404      1108  TIP3      H1             11.4948247036        9.0504225262      -31.7988027738  SOLV      1097            0.0000000000
      3405      1108  TIP3      H2             11.0604464420        8.8136002636      -30.3586657753  SOLV      1097            0.0000000000
      3406      1109  TIP3      OH2             7.7196473373        4.3335649968      -31.5125436184  SOLV      1098            0.0000000000
      3407      1109  TIP3      H1              7.0064095579        4.1156875745      -32.1465865100  SOLV      1098            0.0000000000
      3408      1109  TIP3      H2              8.0890715519        3.4564230746      -31.2783404041  SOLV      1098            0.0000000000
      3409      1110  TIP3      OH2             6.4608848223        6.2067955398      -34.9929272377  SOLV      1099            0.0000000000
      3410      1110  TIP3      H1              7.3472695381        6.5347034994      -34.7359635338  SOLV      1099            0.0000000000
      3411      1110  TIP3      H2              5.9262262278        6.8722157809      -34.5359100070  SOLV      1099            0.0000000000
      3412      1111  TIP3      OH2            15.9248937617        8.1942829446      -32.9827605288  SOLV      1100            0.0000000000
      3413      1111  TIP3      H1             15.9107080724        9.1564876467      -32.9260988398  SOLV      1100            0.0000000000
      3414      1111  TIP3      H2             15.1343169998        7.9342499733      -32.4651364435  SOLV      1100            0.0000000000
      3415      1112  TIP3      OH2            23.5910823543        1.9645936886      -31.3633115182  SOLV      1101            0.0000000000
      3416      1112  TIP3      H1             23.2462840669        1.7339508187      -32.2485852226  SOLV      1101            0.0000000000
      3417      1112  TIP3      H2             23.8455829457        1.0988828025      -30.9980524766  SOLV      1101            0.0000000000
      3418      1113  TIP3      OH2             9.6925985763        6.1985402017      -31.6320754250  SOLV      1102            0.0000000000
      3419      1113  TIP3      H1             10.1922511903        6.0261776008      -30.8085270441  SOLV      1102            0.0000000000
      3420      1113  TIP3      H2              8.9765858695        5.5272941541      -31.5770786239  SOLV      1102            0.0000000000
      3421      1114  TIP3      OH2            13.7372350613       -5.6004389234      -33.7069661676  SOLV      1103            0.0000000000
      3422      1114  TIP3      H1             12.8337709080       -5.8924990217      -33.9456298392  SOLV      1103            0.0000000000
      3423      1114  TIP3      H2             13.5122489866       -4.7997487718      -33.1909291648  SOLV      1103            0.0000000000
      3424      1115  TIP3      OH2            19.1439055005       -4.4714826332      -31.8757764376  SOLV      1104            0.0000000000
      3425      1115  TIP3      H1             19.8351962789       -4.7156803746      -31.2265621516  SOLV      1104            0.0000000000
      3426      1115  TIP3      H2             18.3154039522       -4.6501298906      -31.3875090908  SOLV      1104            0.0000000000
      3427      1116  TIP3      OH2            21.5293137084       -0.6399308834      -32.2971065225  SOLV      1105            0.0000000000
      3428      1116  TIP3      H1             21.0489609234       -0.5648602638      -31.4377706719  SOLV      1105            0.0000000000
      3429      1116  TIP3      H2             21.0183098148       -0.0122758036      -32.8553314902  SOLV      1105            0.0000000000
      3430      1117  TIP3      OH2            12.9756066263       -0.5206984004      -33.5835017767  SOLV      1106            0.0000000000
      3431      1117  TIP3      H1             12.5635133793       -0.2208387233      -32.7490244516  SOLV      1106            0.0000000000
      3432      1117  TIP3      H2             13.1243809430        0.3265904136      -34.0568115218  SOLV      1106            0.0000000000
      3433      1118  TIP3      OH2            18.5523826343        2.0115708683      -30.3453811160  SOLV      1107            0.0000000000
      3434      1118  TIP3      H1             18.3460345406        1.2675662909      -29.7387799683  SOLV      1107            0.0000000000
      3435      1118  TIP3      H2             19.5009847502        2.1344279463      -30.1580091171  SOLV      1107            0.0000000000
      3436      1119  TIP3      OH2            11.2028812401       -0.1780891151      -31.4258381264  SOLV      1108            0.0000000000
      3437      1119  TIP3      H1             11.7442567516        0.3677795936      -30.8318277757  SOLV      1108            0.0000000000
      3438      1119  TIP3      H2             11.1390544569       -1.0164061703      -30.9275957900  SOLV      1108            0.0000000000
      3439      1120  TIP3      OH2             7.3295899120       -4.9287791325      -35.8789313924  SOLV      1109            0.0000000000
      3440      1120  TIP3      H1              7.7800664273       -4.5253348729      -35.1067137829  SOLV      1109            0.0000000000
      3441      1120  TIP3      H2              8.0947322252       -5.2528076130      -36.3671834316  SOLV      1109            0.0000000000
      3442      1121  TIP3      OH2            11.3810994719        5.4169599913      -29.4355450692  SOLV      1110            0.0000000000
      3443      1121  TIP3      H1             12.1818558801        5.6842010623      -28.9401622859  SOLV      1110            0.0000000000
      3444      1121  TIP3      H2             10.7326970932        5.3755187454      -28.7040223655  SOLV      1110            0.0000000000
      3445      1122  TIP3      OH2            15.6977244690       -1.2783644233      -33.7878459354  SOLV      1111            0.0000000000
      3446      1122  TIP3      H1             14.8521943783       -0.8027135538      -33.7740785934  SOLV      1111            0.0000000000
      3447      1122  TIP3      H2             16.3229414180       -0.6209854659      -33.4120981149  SOLV      1111            0.0000000000
      3448      1123  TIP3      OH2            16.7264227027        5.6493983694      -33.1756256929  SOLV      1112            0.0000000000
      3449      1123  TIP3      H1             17.3340006193        5.6213280462      -32.4216652991  SOLV      1112            0.0000000000
      3450      1123  TIP3      H2             16.5433449303        6.6162834886      -33.2137253277  SOLV      1112            0.0000000000
      3451      1124  TIP3      OH2             8.9051232224        2.2283763577      -30.1290458543  SOLV      1113            0.0000000000
      3452      1124  TIP3      H1              9.1089581759        2.0992803656      -29.1816368428  SOLV      1113            0.0000000000
      3453      1124  TIP3      H2              8.2245349619        1.5485745780      -30.2676185171  SOLV      1113            0.0000000000
      3454      1125  TIP3      OH2            16.1974976059        3.3787418983      -29.9527583332  SOLV      1114            0.0000000000
      3455      1125  TIP3      H1             15.6313091836        2.7655701279      -30.4412254584  SOLV      1114            0.0000000000
      3456      1125  TIP3      H2             17.0843352583        3.0258151597      -30.1923907398  SOLV      1114            0.0000000000
      3457      1126  TIP3      OH2            10.9646771296       -2.7568182332      -30.0830508318  SOLV      1115            0.0000000000
      3458      1126  TIP3      H1             10.0031351395       -2.7290922817      -29.9242146716  SOLV      1115            0.0000000000
      3459      1126  TIP3      H2             11.2798200955       -3.2584213373      -29.3121471139  SOLV      1115            0.0000000000
      3460      1127  TIP3      OH2             8.2618575699        7.8344721448      -33.5657150820  SOLV      1116            0.0000000000
      3461      1127  TIP3      H1              8.7565168066        7.4505479159      -32.8128425235  SOLV      1116            0.0000000000
      3462      1127  TIP3      H2              8.2185999576        8.7772159784      -33.3393370865  SOLV      1116            0.0000000000
      3463      1128  TIP3      OH2            19.0863920111       -1.8607331684      -32.8208897664  SOLV      1117            0.0000000000
      3464      1128  TIP3      H1             20.0233381397       -1.6610461841      -32.6643050673  SOLV      1117            0.0000000000
      3465      1128  TIP3      H2             19.0391741717       -2.7875001338      -32.5158600133  SOLV      1117            0.0000000000
      3466      1129  TIP3      OH2            17.4732658904        0.3358526909      -32.4700530096  SOLV      1118            0.0000000000
      3467      1129  TIP3      H1             17.9742596067        0.8493678869      -31.8121247769  SOLV      1118            0.0000000000
      3468      1129  TIP3      H2             18.0710457439       -0.4372169863      -32.5978482900  SOLV      1118            0.0000000000
      3469      1130  TIP3      OH2            24.1787387118       -1.0076079477      -32.5829081225  SOLV      1119            0.0000000000
      3470      1130  TIP3      H1             23.2269637484       -0.9498448734      -32.3420458853  SOLV      1119            0.0000000000
      3471      1130  TIP3      H2             24.2428447230       -0.3476623405      -33.2832319215  SOLV      1119            0.0000000000
      3472      1131  TIP3      OH2            11.0972611103       -6.3615904620      -33.8487308438  SOLV      1120            0.0000000000
      3473      1131  TIP3      H1             10.6161305578       -6.6860060783      -34.6413966218  SOLV      1120            0.0000000000
      3474      1131  TIP3      H2             11.0483661878       -7.1429496480      -33.2605252091  SOLV      1120            0.0000000000
      3475      1132  TIP3      OH2             8.0817164051       11.2649227120      -29.4849311447  SOLV      1121            0.0000000000
      3476      1132  TIP3      H1              8.9440068354       11.2532429250      -29.0116734045  SOLV      1121            0.0000000000
      3477      1132  TIP3      H2              7.8895371061       10.3144296460      -29.5384448030  SOLV      1121            0.0000000000
      3478      1133  TIP3      OH2            12.8684013718       10.8711694489      -29.1285603562  SOLV      1122            0.0000000000
      3479      1133  TIP3      H1             13.7911847912       10.6047634215      -29.0082703656  SOLV      1122            0.0000000000
      3480      1133  TIP3      H2             12.5693116579       10.2036310369      -29.7811214845  SOLV      1122            0.0000000000
      3481      1134  TIP3      OH2            19.3417260944        9.9820213949      -31.5934836950  SOLV      1123            0.0000000000
      3482      1134  TIP3      H1             19.1623989913        9.1955714558      -31.0252877652  SOLV      1123            0.0000000000
      3483      1134  TIP3      H2             20.0843104222       10.3963547361      -31.1268027250  SOLV      1123            0.0000000000
      3484      1135  TIP3      OH2             9.3583617531        5.2784594578      -27.5294587355  SOLV      1124            0.0000000000
      3485      1135  TIP3      H1              9.5003118350        4.3213469562      -27.4105429107  SOLV      1124            0.0000000000
      3486      1135  TIP3      H2              8.4869875776        5.2956207392      -27.9815883420  SOLV      1124            0.0000000000
      3487      1136  TIP3      OH2            15.4439455553        6.1376782039      -29.7367282183  SOLV      1125            0.0000000000
      3488      1136  TIP3      H1             15.0240872424        6.3321023268      -30.5969537700  SOLV      1125            0.0000000000
      3489      1136  TIP3      H2             15.7803394730        5.2252275147      -29.8635064139  SOLV      1125            0.0000000000
      3490      1137  TIP3      OH2            10.5972445234        2.6406912777      -27.6951931101  SOLV      1126            0.0000000000
      3491      1137  TIP3      H1             11.3693998162        2.1156051616      -27.9374827350  SOLV      1126            0.0000000000
      3492      1137  TIP3      H2             10.8633209675        2.9668933389      -26.8082355351  SOLV      1126            0.0000000000
      3493      1138  TIP3      OH2            13.7134610635        1.2863804116      -31.0870424014  SOLV      1127            0.0000000000
      3494      1138  TIP3      H1             13.0537178696        2.0122550416      -31.0368687832  SOLV      1127            0.0000000000
      3495      1138  TIP3      H2             14.3576034515        1.6687256998      -31.7315859025  SOLV      1127            0.0000000000
      3496      1139  TIP3      OH2            19.1079826585        5.4702970091      -29.7330431581  SOLV      1128            0.0000000000
      3497      1139  TIP3      H1             19.9351117812        5.1841094240      -30.1441271675  SOLV      1128            0.0000000000
      3498      1139  TIP3      H2             18.9988317964        4.8065155685      -29.0272201964  SOLV      1128            0.0000000000
      3499      1140  TIP3      OH2            15.1229578007       -0.6755791073      -29.8125900300  SOLV      1129            0.0000000000
      3500      1140  TIP3      H1             15.1865796747       -1.4667367509      -30.3861916297  SOLV      1129            0.0000000000
      3501      1140  TIP3      H2             14.6710486824       -0.0346650421      -30.4015575398  SOLV      1129            0.0000000000
      3502      1141  TIP3      OH2            15.1516863928       -2.8560781467      -31.6376741229  SOLV      1130            0.0000000000
      3503      1141  TIP3      H1             15.4747706676       -2.3993465436      -32.4473069303  SOLV      1130            0.0000000000
      3504      1141  TIP3      H2             14.2208402882       -3.0363269753      -31.8812195593  SOLV      1130            0.0000000000
      3505      1142  TIP3      OH2            15.3584888716        2.4502483682      -32.8002182320  SOLV      1131            0.0000000000
      3506      1142  TIP3      H1             16.2670234710        2.2232422510      -33.0571588630  SOLV      1131            0.0000000000
      3507      1142  TIP3      H2             15.1048685226        3.1465413513      -33.4294215707  SOLV      1131            0.0000000000
      3508      1143  TIP3      OH2            21.2447513982        2.2416130758      -29.2334424323  SOLV      1132            0.0000000000
      3509      1143  TIP3      H1             21.6208774339        1.3597396953      -29.0963474322  SOLV      1132            0.0000000000
      3510      1143  TIP3      H2             21.9545748526        2.6779594572      -29.7318117986  SOLV      1132            0.0000000000
      3511      1144  TIP3      OH2            21.8408457203        4.9686144883      -31.6796282675  SOLV      1133            0.0000000000
      3512      1144  TIP3      H1             21.4126788177        5.6009591096      -32.3024610523  SOLV      1133            0.0000000000
      3513      1144  TIP3      H2             22.5164619827        4.5682468460      -32.2390726332  SOLV      1133            0.0000000000
      3514      1145  TIP3      OH2            13.8979217686        0.4019928036      -27.4940119294  SOLV      1134            0.0000000000
      3515      1145  TIP3      H1             13.2367516855       -0.2967383713      -27.3131039582  SOLV      1134            0.0000000000
      3516      1145  TIP3      H2             14.2462162165        0.1171362563      -28.3628014821  SOLV      1134            0.0000000000
      3517      1146  TIP3      OH2            16.5158990093       -5.1978494273      -31.0432085768  SOLV      1135            0.0000000000
      3518      1146  TIP3      H1             16.0083816577       -4.3824156867      -31.2504071816  SOLV      1135            0.0000000000
      3519      1146  TIP3      H2             15.8340874949       -5.8877311223      -31.1576419137  SOLV      1135            0.0000000000
      3520      1147  TIP3      OH2            17.6704430802       -0.1150691475      -28.8264758231  SOLV      1136            0.0000000000
      3521      1147  TIP3      H1             17.4781395746       -0.2977333659      -27.8869091709  SOLV      1136            0.0000000000
      3522      1147  TIP3      H2             16.8032821902       -0.3588948256      -29.2142995337  SOLV      1136            0.0000000000
      3523      1148  TIP3      OH2            20.1085786401       -0.5980477831      -30.0131639048  SOLV      1137            0.0000000000
      3524      1148  TIP3      H1             19.2880671754       -0.5785437163      -29.4777154045  SOLV      1137            0.0000000000
      3525      1148  TIP3      H2             20.7696444014       -0.9548478579      -29.3929612154  SOLV      1137            0.0000000000
      3526      1149  TIP3      OH2            22.5343063223       -1.2470545531      -28.7831538460  SOLV      1138            0.0000000000
      3527      1149  TIP3      H1             22.6061026101       -2.2112138166      -28.6207413546  SOLV      1138            0.0000000000
      3528      1149  TIP3      H2             22.4426368416       -0.8769298596      -27.8791898807  SOLV      1138            0.0000000000
      3529      1150  TIP3      OH2            12.3058313731       -1.8095170027      -26.9326969600  SOLV      1139            0.0000000000
      3530      1150  TIP3      H1             12.3727810414       -2.7325936797      -27.2415943398  SOLV      1139            0.0000000000
      3531      1150  TIP3      H2             12.7060827063       -1.8945631901      -26.0395341105  SOLV      1139            0.0000000000
      3532      1151  TIP3      OH2            17.4022742290       -5.0871877462      -28.4481890810  SOLV      1140            0.0000000000
      3533      1151  TIP3      H1             18.0626668064       -5.8053480169      -28.5136511524  SOLV      1140            0.0000000000
      3534      1151  TIP3      H2             17.0259831817       -5.1141143484      -29.3509269706  SOLV      1140            0.0000000000
      3535      1152  TIP3      OH2            18.0928111859       -2.9122503702      -26.9039601129  SOLV      1141            0.0000000000
      3536      1152  TIP3      H1             17.8768871352       -3.6381388566      -27.5297216317  SOLV      1141            0.0000000000
      3537      1152  TIP3      H2             17.2925863809       -2.3496483289      -26.9573069595  SOLV      1141            0.0000000000
      3538      1153  TIP3      OH2            23.7469431738        8.6521772632      -31.1086494576  SOLV      1142            0.0000000000
      3539      1153  TIP3      H1             22.9981914318        8.7483141739      -30.4915538436  SOLV      1142            0.0000000000
      3540      1153  TIP3      H2             24.0296571323        9.5771943522      -31.1967373981  SOLV      1142            0.0000000000
      3541      1154  TIP3      OH2             7.4264096358        1.9889697926      -33.9179240131  SOLV      1143            0.0000000000
      3542      1154  TIP3      H1              7.5371435866        1.6051472883      -34.8125056086  SOLV      1143            0.0000000000
      3543      1154  TIP3      H2              8.3674917578        1.9623466258      -33.6200014874  SOLV      1143            0.0000000000
      3544      1155  TIP3      OH2            25.6295822320        3.8338797902      -31.6550595367  SOLV      1144            0.0000000000
      3545      1155  TIP3      H1             24.9008197551        3.1891321064      -31.7277632760  SOLV      1144            0.0000000000
      3546      1155  TIP3      H2             26.4120694219        3.2901924193      -31.8631541925  SOLV      1144            0.0000000000
      3547      1156  TIP3      OH2             9.6567756729       -1.2748064637      -27.3198840666  SOLV      1145            0.0000000000
      3548      1156  TIP3      H1             10.6334089483       -1.3151825431      -27.2243340029  SOLV      1145            0.0000000000
      3549      1156  TIP3      H2              9.4159784932       -2.1405206408      -26.9315000968  SOLV      1145            0.0000000000
      3550      1157  TIP3      OH2            27.8681054284       -2.4613998374      -29.5847605905  SOLV      1146            0.0000000000
      3551      1157  TIP3      H1             28.4973046103       -3.1123045344      -29.9663924054  SOLV      1146            0.0000000000
      3552      1157  TIP3      H2             27.6339073368       -1.9237159871      -30.3729650881  SOLV      1146            0.0000000000
      3553      1158  TIP3      OH2             9.1846813675       -4.3398696468      -33.9186484982  SOLV      1147            0.0000000000
      3554      1158  TIP3      H1              9.8195065783       -5.0661197389      -33.7636276632  SOLV      1147            0.0000000000
      3555      1158  TIP3      H2              9.7930187179       -3.6039752735      -34.1025275382  SOLV      1147            0.0000000000
      3556      1159  TIP3      OH2             7.1908547680       -1.6562180404      -33.1099260474  SOLV      1148            0.0000000000
      3557      1159  TIP3      H1              7.7518399694       -1.6648602925      -33.9144337294  SOLV      1148            0.0000000000
      3558      1159  TIP3      H2              7.4710668942       -0.8422973090      -32.6728203149  SOLV      1148            0.0000000000
      3559      1160  TIP3      OH2            26.7610525718       -0.9691420598      -31.5259005232  SOLV      1149            0.0000000000
      3560      1160  TIP3      H1             25.9300898254       -0.6243515437      -31.1427098336  SOLV      1149            0.0000000000
      3561      1160  TIP3      H2             26.3844730805       -1.6216571298      -32.1457291003  SOLV      1149            0.0000000000
      3562      1161  TIP3      OH2             9.3065120048       -5.8263402890      -30.1291696609  SOLV      1150            0.0000000000
      3563      1161  TIP3      H1              8.8309103969       -5.8160079017      -29.2824019731  SOLV      1150            0.0000000000
      3564      1161  TIP3      H2              8.6499520956       -5.4020019181      -30.7155688717  SOLV      1150            0.0000000000
      3565      1162  TIP3      OH2             9.6909477450        8.5456791349      -29.3109656612  SOLV      1151            0.0000000000
      3566      1162  TIP3      H1              8.7527346637        8.3151620473      -29.4559772706  SOLV      1151            0.0000000000
      3567      1162  TIP3      H2              9.8115711602        8.3113184331      -28.3823004068  SOLV      1151            0.0000000000
      3568      1163  TIP3      OH2            11.3704396826        8.8370133133      -33.6924484736  SOLV      1152            0.0000000000
      3569      1163  TIP3      H1             10.6243357424        9.1308342690      -34.2360145481  SOLV      1152            0.0000000000
      3570      1163  TIP3      H2             12.1158977383        8.8776380129      -34.3012631523  SOLV      1152            0.0000000000
      3571      1164  TIP3      OH2            15.6714115829       11.5732564200      -32.2265997152  SOLV      1153            0.0000000000
      3572      1164  TIP3      H1             16.0696603673       11.3259327272      -31.3613387708  SOLV      1153            0.0000000000
      3573      1164  TIP3      H2             16.3284991600       11.1592172673      -32.8375159440  SOLV      1153            0.0000000000
      3574      1165  TIP3      OH2            25.7853156755       -3.6393180247      -32.5925003806  SOLV      1154            0.0000000000
      3575      1165  TIP3      H1             24.8467553306       -3.6949848681      -32.8301867817  SOLV      1154            0.0000000000
      3576      1165  TIP3      H2             26.0778253634       -4.5693437240      -32.7179283898  SOLV      1154            0.0000000000
      3577      1166  TIP3      OH2             8.0757159132       11.0826350263      -33.0468029620  SOLV      1155            0.0000000000
      3578      1166  TIP3      H1              7.5979402337       11.6908875788      -33.6236158807  SOLV      1155            0.0000000000
      3579      1166  TIP3      H2              8.5024922235       11.7151724772      -32.4415372029  SOLV      1155            0.0000000000
      3580      1167  TIP3      OH2             9.7152516890       -7.1090957217      -36.0577021621  SOLV      1156            0.0000000000
      3581      1167  TIP3      H1              8.9554400305       -7.7292197281      -35.9931512589  SOLV      1156            0.0000000000
      3582      1167  TIP3      H2             10.3013263886       -7.5881006744      -36.6649049264  SOLV      1156            0.0000000000
      3583      1168  TIP3      OH2            12.2979321756       -4.5761809742      -27.6599495104  SOLV      1157            0.0000000000
      3584      1168  TIP3      H1             11.9207207270       -5.2563759775      -27.0716320072  SOLV      1157            0.0000000000
      3585      1168  TIP3      H2             13.2312119794       -4.5805319443      -27.3473338834  SOLV      1157            0.0000000000
      3586      1169  TIP3      OH2            14.7757568397       -4.5920618500      -26.4185844720  SOLV      1158            0.0000000000
      3587      1169  TIP3      H1             15.6511355355       -4.8241028380      -26.7726525697  SOLV      1158            0.0000000000
      3588      1169  TIP3      H2             14.6634979769       -5.2729735972      -25.7229296999  SOLV      1158            0.0000000000
      3589      1170  TIP3      OH2            23.0503748738       -3.9719149075      -28.5078090522  SOLV      1159            0.0000000000
      3590      1170  TIP3      H1             23.2076195405       -4.2615860335      -27.5809622579  SOLV      1159            0.0000000000
      3591      1170  TIP3      H2             23.9667261599       -3.9717597681      -28.8606881607  SOLV      1159            0.0000000000
      3592      1171  TIP3      OH2            30.0558036139        0.5281372754      -32.2478260445  SOLV      1160            0.0000000000
      3593      1171  TIP3      H1             30.4943583490        1.2661337519      -32.7471223349  SOLV      1160            0.0000000000
      3594      1171  TIP3      H2             30.5815398877        0.4860172327      -31.4314813618  SOLV      1160            0.0000000000
      3595      1172  TIP3      OH2            27.7453725717        1.8437728629      -31.5959256966  SOLV      1161            0.0000000000
      3596      1172  TIP3      H1             28.5670525814        1.4420585553      -31.9524995618  SOLV      1161            0.0000000000
      3597      1172  TIP3      H2             27.4259685442        1.1145005350      -31.0441813661  SOLV      1161            0.0000000000
      3598      1173  TIP3      OH2            29.7096612566       -2.5217645913      -33.0176844560  SOLV      1162            0.0000000000
      3599      1173  TIP3      H1             29.5506641369       -3.0802479410      -32.2382054941  SOLV      1162            0.0000000000
      3600      1173  TIP3      H2             29.9087966312       -1.6578641195      -32.6238440434  SOLV      1162            0.0000000000
      3601      1174  TIP3      OH2           -32.3115137906        8.4817152657      -24.7931171384  SOLV      1163            0.0000000000
      3602      1174  TIP3      H1            -31.9084086750        9.3499906548      -24.6206688144  SOLV      1163            0.0000000000
      3603      1174  TIP3      H2            -32.2641319578        8.4258721125      -25.7734039354  SOLV      1163            0.0000000000
      3604      1175  TIP3      OH2           -31.5695109273       10.6867463951      -22.9169771347  SOLV      1164            0.0000000000
      3605      1175  TIP3      H1            -32.3612954580       11.2406202408      -23.0735498888  SOLV      1164            0.0000000000
      3606      1175  TIP3      H2            -31.0726799993       11.2276395173      -22.2666281826  SOLV      1164            0.0000000000
      3607      1176  TIP3      OH2           -34.2827876906        7.6014949534      -23.1339166293  SOLV      1165            0.0000000000
      3608      1176  TIP3      H1            -35.0914844997        8.0031859751      -23.4909158389  SOLV      1165            0.0000000000
      3609      1176  TIP3      H2            -33.6116586798        7.9154272422      -23.7805214303  SOLV      1165            0.0000000000
      3610      1177  TIP3      OH2           -33.9480978386       12.1591056118      -19.6581710975  SOLV      1166            0.0000000000
      3611      1177  TIP3      H1            -33.7968407525       13.0250183890      -20.0751736454  SOLV      1166            0.0000000000
      3612      1177  TIP3      H2            -33.3038321737       11.5885520539      -20.0979111092  SOLV      1166            0.0000000000
      3613      1178  TIP3      OH2           -38.6365727354        6.0697312812      -20.0473744948  SOLV      1167            0.0000000000
      3614      1178  TIP3      H1            -38.0959703119        5.7601220050      -19.3062539015  SOLV      1167            0.0000000000
      3615      1178  TIP3      H2            -39.5112371488        6.1096265933      -19.6389868267  SOLV      1167            0.0000000000
      3616      1179  TIP3      OH2           -36.2892243373       10.2631186557      -20.9964437198  SOLV      1168            0.0000000000
      3617      1179  TIP3      H1            -36.6336172938       10.0510942401      -20.1000823523  SOLV      1168            0.0000000000
      3618      1179  TIP3      H2            -36.8721377666       11.0018326979      -21.2294141563  SOLV      1168            0.0000000000
      3619      1180  TIP3      OH2           -38.4722953264       12.3129882029      -18.0298629213  SOLV      1169            0.0000000000
      3620      1180  TIP3      H1            -38.7438040993       12.1957257212      -17.1085978666  SOLV      1169            0.0000000000
      3621      1180  TIP3      H2            -37.5345222427       12.5643501705      -17.9182028171  SOLV      1169            0.0000000000
      3622      1181  TIP3      OH2           -37.3248358593        7.7502867384      -21.9706505510  SOLV      1170            0.0000000000
      3623      1181  TIP3      H1            -37.0561403032        8.4833587648      -21.3905372733  SOLV      1170            0.0000000000
      3624      1181  TIP3      H2            -37.5889254491        7.0599040013      -21.3360219088  SOLV      1170            0.0000000000
      3625      1182  TIP3      OH2           -33.6993714437        9.3551781121      -20.5503217514  SOLV      1171            0.0000000000
      3626      1182  TIP3      H1            -34.4903431199        9.7757721831      -20.9714096293  SOLV      1171            0.0000000000
      3627      1182  TIP3      H2            -33.1514408336        9.1868847562      -21.3382658514  SOLV      1171            0.0000000000
      3628      1183  TIP3      OH2           -38.1184231697       15.9255249200      -17.2178767076  SOLV      1172            0.0000000000
      3629      1183  TIP3      H1            -37.6712354329       16.0265843441      -18.0823180367  SOLV      1172            0.0000000000
      3630      1183  TIP3      H2            -37.8094141558       15.0564219397      -16.9216967252  SOLV      1172            0.0000000000
      3631      1184  TIP3      OH2           -35.7697520657       12.6710510787      -17.6141918848  SOLV      1173            0.0000000000
      3632      1184  TIP3      H1            -35.2117551257       11.9913950413      -17.2186994344  SOLV      1173            0.0000000000
      3633      1184  TIP3      H2            -35.2516868974       12.8534297766      -18.4340037282  SOLV      1173            0.0000000000
      3634      1185  TIP3      OH2           -34.9031306684       14.7715678354      -20.1636718760  SOLV      1174            0.0000000000
      3635      1185  TIP3      H1            -35.2606857756       15.4709944419      -20.7226413727  SOLV      1174            0.0000000000
      3636      1185  TIP3      H2            -34.0011444813       15.1416317784      -19.9926685741  SOLV      1174            0.0000000000
      3637      1186  TIP3      OH2           -37.1458197110        9.2902450444      -18.6100835279  SOLV      1175            0.0000000000
      3638      1186  TIP3      H1            -38.1114244748        9.2665127989      -18.6142511911  SOLV      1175            0.0000000000
      3639      1186  TIP3      H2            -36.9428401885        9.4601198035      -17.6824004139  SOLV      1175            0.0000000000
      3640      1187  TIP3      OH2           -34.7154406994        9.0580928403      -16.9798106420  SOLV      1176            0.0000000000
      3641      1187  TIP3      H1            -34.8628136676        8.0986841122      -16.5799910421  SOLV      1176            0.0000000000
      3642      1187  TIP3      H2            -34.9567466465        9.5899893095      -16.3348195076  SOLV      1176            0.0000000000
      3643      1188  TIP3      OH2           -39.8111520834        4.9778789308      -17.1062095698  SOLV      1177            0.0000000000
      3644      1188  TIP3      H1            -39.0444298099        4.4044990450      -16.9110496207  SOLV      1177            0.0000000000
      3645      1188  TIP3      H2            -40.5612062964        4.3716907479      -16.8997922118  SOLV      1177            0.0000000000
      3646      1189  TIP3      OH2           -39.5909342517        7.5766128654      -14.9225000234  SOLV      1178            0.0000000000
      3647      1189  TIP3      H1            -39.4285049737        6.6743015506      -15.2337948813  SOLV      1178            0.0000000000
      3648      1189  TIP3      H2            -40.2353967183        7.8794808381      -15.5768550326  SOLV      1178            0.0000000000
      3649      1190  TIP3      OH2           -34.4181338081       19.4611946983      -19.7036616897  SOLV      1179            0.0000000000
      3650      1190  TIP3      H1            -34.7708233229       19.2275095388      -18.8148416996  SOLV      1179            0.0000000000
      3651      1190  TIP3      H2            -33.6423818369       19.9951058340      -19.4588246123  SOLV      1179            0.0000000000
      3652      1191  TIP3      OH2           -33.8604182756       12.2233691221      -23.2960018205  SOLV      1180            0.0000000000
      3653      1191  TIP3      H1            -34.6616746423       12.6221616661      -22.9399059306  SOLV      1180            0.0000000000
      3654      1191  TIP3      H2            -33.4996809567       12.9372214884      -23.8589554816  SOLV      1180            0.0000000000
      3655      1192  TIP3      OH2           -30.7812471885        9.3644927190      -19.9225918142  SOLV      1181            0.0000000000
      3656      1192  TIP3      H1            -31.6725462367        9.4674624081      -19.5664137505  SOLV      1181            0.0000000000
      3657      1192  TIP3      H2            -30.7095692301        8.3995742098      -20.0005521825  SOLV      1181            0.0000000000
      3658      1193  TIP3      OH2           -31.8024267310        6.7420941288      -21.1529602377  SOLV      1182            0.0000000000
      3659      1193  TIP3      H1            -32.6361842755        6.6303160580      -21.6400325811  SOLV      1182            0.0000000000
      3660      1193  TIP3      H2            -31.3985353210        5.8485295133      -21.2429819501  SOLV      1182            0.0000000000
      3661      1194  TIP3      OH2           -34.5748416261        5.0650647037      -25.5563387458  SOLV      1183            0.0000000000
      3662      1194  TIP3      H1            -34.0513676249        5.6952959343      -26.0668232397  SOLV      1183            0.0000000000
      3663      1194  TIP3      H2            -35.0433154630        4.5700329704      -26.2494588462  SOLV      1183            0.0000000000
      3664      1195  TIP3      OH2           -34.4967080270        6.2838769313      -16.8204475127  SOLV      1184            0.0000000000
      3665      1195  TIP3      H1            -34.2976351721        5.9675070193      -15.9332515424  SOLV      1184            0.0000000000
      3666      1195  TIP3      H2            -33.6244980163        6.2703834261      -17.2535592473  SOLV      1184            0.0000000000
      3667      1196  TIP3      OH2           -22.3893397789       15.5754771894      -30.3072830404  SOLV      1185            0.0000000000
      3668      1196  TIP3      H1            -21.9482014991       15.5271342822      -29.4353239204  SOLV      1185            0.0000000000
      3669      1196  TIP3      H2            -22.8116925120       14.6970129798      -30.3469142589  SOLV      1185            0.0000000000
      3670      1197  TIP3      OH2           -29.0495037322       14.7517042714      -26.7303250358  SOLV      1186            0.0000000000
      3671      1197  TIP3      H1            -29.0219290175       13.9085935306      -26.2408301994  SOLV      1186            0.0000000000
      3672      1197  TIP3      H2            -28.6481276115       15.3455534217      -26.0666845624  SOLV      1186            0.0000000000
      3673      1198  TIP3      OH2           -19.8921167860       18.3195793704      -33.4505044777  SOLV      1187            0.0000000000
      3674      1198  TIP3      H1            -20.1661481334       17.9883208241      -32.5831153209  SOLV      1187            0.0000000000
      3675      1198  TIP3      H2            -19.4935795010       19.1674284152      -33.2321657616  SOLV      1187            0.0000000000
      3676      1199  TIP3      OH2           -24.3019199440       17.6636252112      -29.2802123490  SOLV      1188            0.0000000000
      3677      1199  TIP3      H1            -23.9973329396       16.9709168546      -29.8884658287  SOLV      1188            0.0000000000
      3678      1199  TIP3      H2            -23.5082107020       18.2373663523      -29.2724807047  SOLV      1188            0.0000000000
      3679      1200  TIP3      OH2           -14.2895932223       11.2282131425      -29.9268288989  SOLV      1189            0.0000000000
      3680      1200  TIP3      H1            -13.9742093098       12.0497412022      -29.4976560979  SOLV      1189            0.0000000000
      3681      1200  TIP3      H2            -14.0484919429       11.3941009137      -30.8548068611  SOLV      1189            0.0000000000
      3682      1201  TIP3      OH2           -20.3462543355       13.0161089880      -29.6332463343  SOLV      1190            0.0000000000
      3683      1201  TIP3      H1            -19.8839793709       12.1912977815      -29.3876522602  SOLV      1190            0.0000000000
      3684      1201  TIP3      H2            -20.6413152725       12.8001464628      -30.5380742621  SOLV      1190            0.0000000000
      3685      1202  TIP3      OH2           -26.8140267336        9.8298950118      -30.0044981053  SOLV      1191            0.0000000000
      3686      1202  TIP3      H1            -27.2906010433       10.3943662800      -30.6244448882  SOLV      1191            0.0000000000
      3687      1202  TIP3      H2            -27.1757762371        8.9575672808      -30.2720512065  SOLV      1191            0.0000000000
      3688      1203  TIP3      OH2           -20.0085129357       10.5534749987      -33.6026907337  SOLV      1192            0.0000000000
      3689      1203  TIP3      H1            -19.2242308829       10.4243302691      -33.0176622929  SOLV      1192            0.0000000000
      3690      1203  TIP3      H2            -19.5742049432       10.9088501294      -34.4015842685  SOLV      1192            0.0000000000
      3691      1204  TIP3      OH2           -25.9652778363       12.8160206620      -31.5183254232  SOLV      1193            0.0000000000
      3692      1204  TIP3      H1            -25.2165534558       12.8800319508      -30.8808362636  SOLV      1193            0.0000000000
      3693      1204  TIP3      H2            -26.7013919016       13.1342637410      -30.9504499154  SOLV      1193            0.0000000000
      3694      1205  TIP3      OH2           -13.5384174442       13.3216429067      -28.2454014035  SOLV      1194            0.0000000000
      3695      1205  TIP3      H1            -14.3974122718       13.7557555325      -28.4303492799  SOLV      1194            0.0000000000
      3696      1205  TIP3      H2            -13.4381289261       13.5325618042      -27.3044718748  SOLV      1194            0.0000000000
      3697      1206  TIP3      OH2           -26.9727359733        9.4600042834      -25.5992352450  SOLV      1195            0.0000000000
      3698      1206  TIP3      H1            -27.6494214658        9.7779965849      -26.2262672641  SOLV      1195            0.0000000000
      3699      1206  TIP3      H2            -27.4782076039        9.5532533943      -24.7642917073  SOLV      1195            0.0000000000
      3700      1207  TIP3      OH2           -26.2374910505       17.3344189973      -27.4216871661  SOLV      1196            0.0000000000
      3701      1207  TIP3      H1            -26.5183076237       18.1573919314      -27.0035654362  SOLV      1196            0.0000000000
      3702      1207  TIP3      H2            -25.6060183381       17.6486443984      -28.1109360155  SOLV      1196            0.0000000000
      3703      1208  TIP3      OH2           -17.8806243221       10.5987065623      -31.9358989588  SOLV      1197            0.0000000000
      3704      1208  TIP3      H1            -18.0585404490       10.1920751342      -31.0785700588  SOLV      1197            0.0000000000
      3705      1208  TIP3      H2            -17.3791343955       11.3969895632      -31.6786753766  SOLV      1197            0.0000000000
      3706      1209  TIP3      OH2           -28.1239341178       10.7728760719      -27.8100738548  SOLV      1198            0.0000000000
      3707      1209  TIP3      H1            -27.5008031622       11.4202778249      -27.4199444137  SOLV      1198            0.0000000000
      3708      1209  TIP3      H2            -27.5712924105       10.3928384349      -28.5241599467  SOLV      1198            0.0000000000
      3709      1210  TIP3      OH2           -19.0300462598       21.0509110245      -31.4593828137  SOLV      1199            0.0000000000
      3710      1210  TIP3      H1            -19.9430511084       21.0759648764      -31.1080276912  SOLV      1199            0.0000000000
      3711      1210  TIP3      H2            -19.0203448088       21.8351776450      -32.0443906016  SOLV      1199            0.0000000000
      3712      1211  TIP3      OH2           -16.3480754564       10.2144571008      -28.2729960850  SOLV      1200            0.0000000000
      3713      1211  TIP3      H1            -17.2137236831       10.5001995275      -28.6064305345  SOLV      1200            0.0000000000
      3714      1211  TIP3      H2            -15.7339277872       10.5446736138      -28.9620998116  SOLV      1200            0.0000000000
      3715      1212  TIP3      OH2           -23.4660221293        6.6108527507      -28.4514837323  SOLV      1201            0.0000000000
      3716      1212  TIP3      H1            -23.5988989977        5.6691224308      -28.2277926221  SOLV      1201            0.0000000000
      3717      1212  TIP3      H2            -24.2101725869        7.0172330977      -27.9512517931  SOLV      1201            0.0000000000
      3718      1213  TIP3      OH2           -17.0080754982       20.2032507106      -28.3805454505  SOLV      1202            0.0000000000
      3719      1213  TIP3      H1            -17.1592998135       19.4747198467      -29.0237897311  SOLV      1202            0.0000000000
      3720      1213  TIP3      H2            -17.1323411097       20.9952460772      -28.9475659538  SOLV      1202            0.0000000000
      3721      1214  TIP3      OH2           -15.0865561365       16.7533125022      -29.9790815692  SOLV      1203            0.0000000000
      3722      1214  TIP3      H1            -15.9392948330       17.2412558856      -29.9615252632  SOLV      1203            0.0000000000
      3723      1214  TIP3      H2            -14.7789921212       16.9835595169      -30.8842338460  SOLV      1203            0.0000000000
      3724      1215  TIP3      OH2           -21.5495190025       14.2430935367      -34.5321181223  SOLV      1204            0.0000000000
      3725      1215  TIP3      H1            -21.4836152459       14.8445267490      -35.2954815484  SOLV      1204            0.0000000000
      3726      1215  TIP3      H2            -20.6347202051       13.9212713717      -34.5448252769  SOLV      1204            0.0000000000
      3727      1216  TIP3      OH2           -18.3000409157       15.4690574344      -26.9766711882  SOLV      1205            0.0000000000
      3728      1216  TIP3      H1            -18.3152779127       16.2821708311      -26.4360916557  SOLV      1205            0.0000000000
      3729      1216  TIP3      H2            -19.1519724151       15.5467397711      -27.4473629100  SOLV      1205            0.0000000000
      3730      1217  TIP3      OH2           -26.4285882589       14.8857704330      -28.6709557050  SOLV      1206            0.0000000000
      3731      1217  TIP3      H1            -26.0453063612       15.3840653821      -29.4109746825  SOLV      1206            0.0000000000
      3732      1217  TIP3      H2            -26.3976292090       15.5758516140      -27.9766327065  SOLV      1206            0.0000000000
      3733      1218  TIP3      OH2           -21.6415220603       21.2306693180      -30.6154071984  SOLV      1207            0.0000000000
      3734      1218  TIP3      H1            -22.3246681483       21.6695379745      -30.0914431450  SOLV      1207            0.0000000000
      3735      1218  TIP3      H2            -21.6684506227       20.3436748410      -30.1929764550  SOLV      1207            0.0000000000
      3736      1219  TIP3      OH2           -25.7961247321       20.2491868408      -25.3236792838  SOLV      1208            0.0000000000
      3737      1219  TIP3      H1            -26.1546273090       20.9327027284      -24.7151684456  SOLV      1208            0.0000000000
      3738      1219  TIP3      H2            -26.5227945138       19.6122794711      -25.2585464984  SOLV      1208            0.0000000000
      3739      1220  TIP3      OH2           -27.9565070939       15.9071380858      -24.2807531310  SOLV      1209            0.0000000000
      3740      1220  TIP3      H1            -27.7811286845       16.7796864276      -23.8812075614  SOLV      1209            0.0000000000
      3741      1220  TIP3      H2            -28.8712210687       15.7800857103      -23.9458030766  SOLV      1209            0.0000000000
      3742      1221  TIP3      OH2           -27.6489592703       21.8218437111      -24.1558413067  SOLV      1210            0.0000000000
      3743      1221  TIP3      H1            -28.1448585691       22.4661330609      -24.7023525996  SOLV      1210            0.0000000000
      3744      1221  TIP3      H2            -28.3500272606       21.5122300815      -23.5375747644  SOLV      1210            0.0000000000
      3745      1222  TIP3      OH2           -17.0446604894        6.0843526606      -37.4162340849  SOLV      1211            0.0000000000
      3746      1222  TIP3      H1            -17.8919273848        6.2162919599      -36.9437439458  SOLV      1211            0.0000000000
      3747      1222  TIP3      H2            -16.8469791128        6.9941868930      -37.7033857900  SOLV      1211            0.0000000000
      3748      1223  TIP3      OH2           -14.6273801450       23.7995285504      -27.8805301811  SOLV      1212            0.0000000000
      3749      1223  TIP3      H1            -14.6552560443       22.8266571385      -27.7755452848  SOLV      1212            0.0000000000
      3750      1223  TIP3      H2            -15.4799604796       24.0463045575      -27.4523796124  SOLV      1212            0.0000000000
      3751      1224  TIP3      OH2           -23.3943394850       21.4185583706      -26.4260609340  SOLV      1213            0.0000000000
      3752      1224  TIP3      H1            -23.4637184592       22.3908705201      -26.2747216072  SOLV      1213            0.0000000000
      3753      1224  TIP3      H2            -24.2751453977       21.1254673740      -26.1278852936  SOLV      1213            0.0000000000
      3754      1225  TIP3      OH2           -15.7549269103       15.0856137266      -25.2418450906  SOLV      1214            0.0000000000
      3755      1225  TIP3      H1            -16.6188277793       15.1495167243      -25.6743789478  SOLV      1214            0.0000000000
      3756      1225  TIP3      H2            -15.5784597028       14.1249197350      -25.3099111010  SOLV      1214            0.0000000000
      3757      1226  TIP3      OH2           -28.9016571600       18.8270694804      -25.2182373133  SOLV      1215            0.0000000000
      3758      1226  TIP3      H1            -28.7232803895       18.6952791372      -24.2666031507  SOLV      1215            0.0000000000
      3759      1226  TIP3      H2            -29.7002232348       19.3801639156      -25.2192654221  SOLV      1215            0.0000000000
      3760      1227  TIP3      OH2           -25.7627495592        7.4515212113      -27.1172827995  SOLV      1216            0.0000000000
      3761      1227  TIP3      H1            -26.6324875679        7.1102762705      -27.4193727529  SOLV      1216            0.0000000000
      3762      1227  TIP3      H2            -26.0745957757        8.2194853863      -26.5940456982  SOLV      1216            0.0000000000
      3763      1228  TIP3      OH2           -20.4302159048        8.5245098136      -25.1815567491  SOLV      1217            0.0000000000
      3764      1228  TIP3      H1            -19.7184901706        8.2474774716      -24.5645025654  SOLV      1217            0.0000000000
      3765      1228  TIP3      H2            -21.2425298437        8.3381520477      -24.6694003056  SOLV      1217            0.0000000000
      3766      1229  TIP3      OH2           -18.1329442691       12.8343799427      -26.0234782849  SOLV      1218            0.0000000000
      3767      1229  TIP3      H1            -18.6247382040       12.7992229598      -25.1704295037  SOLV      1218            0.0000000000
      3768      1229  TIP3      H2            -18.3464298494       13.7267978037      -26.3545363072  SOLV      1218            0.0000000000
      3769      1230  TIP3      OH2           -26.3771475884       12.6912156170      -26.9085967703  SOLV      1219            0.0000000000
      3770      1230  TIP3      H1            -26.9249771684       12.8942978292      -26.1203711869  SOLV      1219            0.0000000000
      3771      1230  TIP3      H2            -26.4211545619       13.5236701123      -27.4228850890  SOLV      1219            0.0000000000
      3772      1231  TIP3      OH2           -21.0006813748       15.0188212926      -23.7158990607  SOLV      1220            0.0000000000
      3773      1231  TIP3      H1            -21.2138402806       14.2947715749      -23.0845458895  SOLV      1220            0.0000000000
      3774      1231  TIP3      H2            -20.0612401609       15.1670821962      -23.4887168900  SOLV      1220            0.0000000000
      3775      1232  TIP3      OH2           -21.1949377902       12.6110289464      -32.1973463925  SOLV      1221            0.0000000000
      3776      1232  TIP3      H1            -21.4650643111       13.1818427945      -32.9455212228  SOLV      1221            0.0000000000
      3777      1232  TIP3      H2            -20.9233906345       11.7956215289      -32.6754100836  SOLV      1221            0.0000000000
      3778      1233  TIP3      OH2           -28.2224604466       12.7744173861      -24.8329961603  SOLV      1222            0.0000000000
      3779      1233  TIP3      H1            -28.0294392584       13.3538494609      -24.0854270419  SOLV      1222            0.0000000000
      3780      1233  TIP3      H2            -28.3719654518       11.9176068472      -24.3831622858  SOLV      1222            0.0000000000
      3781      1234  TIP3      OH2           -21.1124359302       14.9836938119      -27.9556829079  SOLV      1223            0.0000000000
      3782      1234  TIP3      H1            -20.7678593343       14.2768907947      -28.5507575905  SOLV      1223            0.0000000000
      3783      1234  TIP3      H2            -21.3983388131       14.4329244480      -27.1944220570  SOLV      1223            0.0000000000
      3784      1235  TIP3      OH2           -24.2905507683        9.6876613658      -31.0820760071  SOLV      1224            0.0000000000
      3785      1235  TIP3      H1            -25.0618313209        9.7413913322      -30.4700883708  SOLV      1224            0.0000000000
      3786      1235  TIP3      H2            -23.5687788322        9.3804009154      -30.5011695614  SOLV      1224            0.0000000000
      3787      1236  TIP3      OH2           -19.4130435455       10.4412954406      -29.1982762289  SOLV      1225            0.0000000000
      3788      1236  TIP3      H1            -19.7158620820       10.5503616759      -28.2650838890  SOLV      1225            0.0000000000
      3789      1236  TIP3      H2            -20.0509234471        9.7915311796      -29.5228857985  SOLV      1225            0.0000000000
      3790      1237  TIP3      OH2           -17.8301803435       27.2830433940      -26.9979267499  SOLV      1226            0.0000000000
      3791      1237  TIP3      H1            -17.8400025871       27.4381315982      -27.9641029123  SOLV      1226            0.0000000000
      3792      1237  TIP3      H2            -17.0033735059       27.7609385138      -26.7719761891  SOLV      1226            0.0000000000
      3793      1238  TIP3      OH2           -28.0598703439       18.3122881768      -22.6254089496  SOLV      1227            0.0000000000
      3794      1238  TIP3      H1            -27.3237954513       18.5835179579      -22.0380257690  SOLV      1227            0.0000000000
      3795      1238  TIP3      H2            -28.8127902479       18.3357404459      -22.0049287106  SOLV      1227            0.0000000000
      3796      1239  TIP3      OH2           -23.5418399020       12.9442417381      -30.2203227242  SOLV      1228            0.0000000000
      3797      1239  TIP3      H1            -22.7254582652       12.5930604172      -30.6083763465  SOLV      1228            0.0000000000
      3798      1239  TIP3      H2            -23.5353579890       12.5400112471      -29.3254262817  SOLV      1228            0.0000000000
      3799      1240  TIP3      OH2           -28.3240046682        7.8973877276      -31.2022670755  SOLV      1229            0.0000000000
      3800      1240  TIP3      H1            -28.6086635092        7.1677768696      -30.6085347433  SOLV      1229            0.0000000000
      3801      1240  TIP3      H2            -28.3606693443        7.4158218203      -32.0530998905  SOLV      1229            0.0000000000
      3802      1241  TIP3      OH2           -23.7490493431       12.0407299055      -27.4969927455  SOLV      1230            0.0000000000
      3803      1241  TIP3      H1            -24.6493661214       12.3272240987      -27.2353656823  SOLV      1230            0.0000000000
      3804      1241  TIP3      H2            -23.1782350627       12.5650279819      -26.9025582613  SOLV      1230            0.0000000000
      3805      1242  TIP3      OH2           -17.4803090038       18.1259962205      -30.1078729389  SOLV      1231            0.0000000000
      3806      1242  TIP3      H1            -17.1860068948       18.6461958648      -30.8919256829  SOLV      1231            0.0000000000
      3807      1242  TIP3      H2            -18.3140517722       17.7223029306      -30.4293677174  SOLV      1231            0.0000000000
      3808      1243  TIP3      OH2           -22.3996813823       18.8962769685      -26.3865242545  SOLV      1232            0.0000000000
      3809      1243  TIP3      H1            -22.0014047721       18.8109154375      -25.5107166360  SOLV      1232            0.0000000000
      3810      1243  TIP3      H2            -22.7487612668       19.8133474270      -26.3638184355  SOLV      1232            0.0000000000
      3811      1244  TIP3      OH2           -21.2599918888       11.3006723184      -36.1515467765  SOLV      1233            0.0000000000
      3812      1244  TIP3      H1            -20.3370567916       11.2293126349      -36.4348596529  SOLV      1233            0.0000000000
      3813      1244  TIP3      H2            -21.5846844217       12.0068036548      -36.7374843109  SOLV      1233            0.0000000000
      3814      1245  TIP3      OH2           -30.4947823635       15.6611942874      -23.3161163606  SOLV      1234            0.0000000000
      3815      1245  TIP3      H1            -30.2136007298       15.6413502542      -22.3775761663  SOLV      1234            0.0000000000
      3816      1245  TIP3      H2            -31.0321154224       14.8544012517      -23.3706429726  SOLV      1234            0.0000000000
      3817      1246  TIP3      OH2           -23.3984424154       16.3867290703      -23.2878650923  SOLV      1235            0.0000000000
      3818      1246  TIP3      H1            -24.0210445245       15.7163165144      -23.6186868875  SOLV      1235            0.0000000000
      3819      1246  TIP3      H2            -22.5383736240       16.0128107852      -23.5796691375  SOLV      1235            0.0000000000
      3820      1247  TIP3      OH2           -20.8393045307       21.9007795165      -27.5296232682  SOLV      1236            0.0000000000
      3821      1247  TIP3      H1            -21.7612925551       21.6614237859      -27.3116272375  SOLV      1236            0.0000000000
      3822      1247  TIP3      H2            -20.5527889863       22.2471385725      -26.6529842756  SOLV      1236            0.0000000000
      3823      1248  TIP3      OH2           -16.8506757367       12.0686137118      -38.2347635653  SOLV      1237            0.0000000000
      3824      1248  TIP3      H1            -17.4974052291       11.5416512122      -38.7348824769  SOLV      1237            0.0000000000
      3825      1248  TIP3      H2            -16.8658597981       12.9015482997      -38.7224071528  SOLV      1237            0.0000000000
      3826      1249  TIP3      OH2           -14.5172635468       20.9506969049      -27.5919244183  SOLV      1238            0.0000000000
      3827      1249  TIP3      H1            -15.4909399459       20.8272753452      -27.6344690013  SOLV      1238            0.0000000000
      3828      1249  TIP3      H2            -14.2687976721       20.6180401811      -28.4853380484  SOLV      1238            0.0000000000
      3829      1250  TIP3      OH2           -19.8241356932       16.7941387542      -30.9708285984  SOLV      1239            0.0000000000
      3830      1250  TIP3      H1            -20.7533869732       16.5097140486      -30.8821520568  SOLV      1239            0.0000000000
      3831      1250  TIP3      H2            -19.4378928251       16.0200680334      -31.4271381012  SOLV      1239            0.0000000000
      3832      1251  TIP3      OH2           -21.8122453256       18.8796044979      -29.0639028274  SOLV      1240            0.0000000000
      3833      1251  TIP3      H1            -21.9701174491       18.8321679116      -28.0935374886  SOLV      1240            0.0000000000
      3834      1251  TIP3      H2            -21.0608709393       18.2793969446      -29.1664495369  SOLV      1240            0.0000000000
      3835      1252  TIP3      OH2           -19.4203593896       24.0161949386      -28.6101192337  SOLV      1241            0.0000000000
      3836      1252  TIP3      H1            -20.0301279102       23.2865362666      -28.3473082747  SOLV      1241            0.0000000000
      3837      1252  TIP3      H2            -19.9403587383       24.5183712157      -29.2544180534  SOLV      1241            0.0000000000
      3838      1253  TIP3      OH2           -28.5234584349       10.2265898549      -23.3988910486  SOLV      1242            0.0000000000
      3839      1253  TIP3      H1            -29.4881169707       10.1742581674      -23.2747773546  SOLV      1242            0.0000000000
      3840      1253  TIP3      H2            -28.2046407438        9.6824458666      -22.6584907807  SOLV      1242            0.0000000000
      3841      1254  TIP3      OH2           -20.1539716659       10.8681032178      -26.6046317097  SOLV      1243            0.0000000000
      3842      1254  TIP3      H1            -19.3799954023       11.2945649425      -26.1979383530  SOLV      1243            0.0000000000
      3843      1254  TIP3      H2            -20.2754982967       10.0754767938      -26.0363545806  SOLV      1243            0.0000000000
      3844      1255  TIP3      OH2           -21.4854255400        8.5337087347      -34.9557659647  SOLV      1244            0.0000000000
      3845      1255  TIP3      H1            -21.9566494065        8.9227823163      -35.7166883471  SOLV      1244            0.0000000000
      3846      1255  TIP3      H2            -20.9988282932        9.3184059136      -34.6261577266  SOLV      1244            0.0000000000
      3847      1256  TIP3      OH2           -24.3838796509       10.7184180908      -33.5176065249  SOLV      1245            0.0000000000
      3848      1256  TIP3      H1            -23.8066318268       10.2835142081      -34.1078014077  SOLV      1245            0.0000000000
      3849      1256  TIP3      H2            -24.2742816550       10.2160912184      -32.6641995735  SOLV      1245            0.0000000000
      3850      1257  TIP3      OH2           -21.7837275267       13.3835560982      -25.8662673760  SOLV      1246            0.0000000000
      3851      1257  TIP3      H1            -21.5343675248       13.9093195018      -25.0766465914  SOLV      1246            0.0000000000
      3852      1257  TIP3      H2            -21.2720539865       12.5676276593      -25.7295172162  SOLV      1246            0.0000000000
      3853      1258  TIP3      OH2           -23.0037051438        7.4823806537      -32.9043971554  SOLV      1247            0.0000000000
      3854      1258  TIP3      H1            -22.6683712177        7.9805304067      -32.1340165320  SOLV      1247            0.0000000000
      3855      1258  TIP3      H2            -22.3987751161        7.8053733096      -33.6103837557  SOLV      1247            0.0000000000
      3856      1259  TIP3      OH2           -15.4561259805       12.4202414340      -26.0696811216  SOLV      1248            0.0000000000
      3857      1259  TIP3      H1            -16.4331994782       12.4205356147      -25.9646821073  SOLV      1248            0.0000000000
      3858      1259  TIP3      H2            -15.3748862135       11.8491364911      -26.8453602429  SOLV      1248            0.0000000000
      3859      1260  TIP3      OH2           -18.8813831727       14.3424709386      -32.1311914305  SOLV      1249            0.0000000000
      3860      1260  TIP3      H1            -19.6107126911       13.7560101921      -31.8751645464  SOLV      1249            0.0000000000
      3861      1260  TIP3      H2            -18.1186953672       13.9123746212      -31.6854845125  SOLV      1249            0.0000000000
      3862      1261  TIP3      OH2           -19.1211497557       23.4466003160      -32.7616558771  SOLV      1250            0.0000000000
      3863      1261  TIP3      H1            -19.3637824757       24.2602415565      -33.2419413784  SOLV      1250            0.0000000000
      3864      1261  TIP3      H2            -18.1485865389       23.5991167429      -32.7141244021  SOLV      1250            0.0000000000
      3865      1262  TIP3      OH2           -28.3373545003        6.5844602372      -27.4645009974  SOLV      1251            0.0000000000
      3866      1262  TIP3      H1            -28.7105929823        6.2537870459      -28.3075103397  SOLV      1251            0.0000000000
      3867      1262  TIP3      H2            -28.4980647859        5.8344507423      -26.8573500899  SOLV      1251            0.0000000000
      3868      1263  TIP3      OH2           -26.5959689654       23.8268674344      -22.4426800678  SOLV      1252            0.0000000000
      3869      1263  TIP3      H1            -25.7121131071       23.4371138142      -22.3728494969  SOLV      1252            0.0000000000
      3870      1263  TIP3      H2            -26.9786177665       23.2669943980      -23.1402494372  SOLV      1252            0.0000000000
      3871      1264  TIP3      OH2           -20.2416210688       22.8838074676      -25.0800796555  SOLV      1253            0.0000000000
      3872      1264  TIP3      H1            -20.3463549884       22.2032356039      -24.3745019754  SOLV      1253            0.0000000000
      3873      1264  TIP3      H2            -19.5027223078       23.4225305849      -24.7377495327  SOLV      1253            0.0000000000
      3874      1265  TIP3      OH2           -30.3132941167       18.1266934604      -20.7922484977  SOLV      1254            0.0000000000
      3875      1265  TIP3      H1            -29.9689073448       17.2180063708      -20.8164436340  SOLV      1254            0.0000000000
      3876      1265  TIP3      H2            -31.2107459131       17.8851833469      -20.4745633730  SOLV      1254            0.0000000000
      3877      1266  TIP3      OH2           -24.1567868578       19.1310096418      -23.1705924284  SOLV      1255            0.0000000000
      3878      1266  TIP3      H1            -24.4548383406       19.2627796731      -24.0856463131  SOLV      1255            0.0000000000
      3879      1266  TIP3      H2            -23.8021033241       18.2161359792      -23.2004593659  SOLV      1255            0.0000000000
      3880      1267  TIP3      OH2           -19.2311887277       19.2710374639      -27.0485798092  SOLV      1256            0.0000000000
      3881      1267  TIP3      H1            -18.4301977197       19.6383234106      -27.4749625588  SOLV      1256            0.0000000000
      3882      1267  TIP3      H2            -19.8929869518       19.9388250943      -27.2847138071  SOLV      1256            0.0000000000
      3883      1268  TIP3      OH2           -28.8785320893       15.4924157291      -20.9922258480  SOLV      1257            0.0000000000
      3884      1268  TIP3      H1            -28.0984094289       14.9334481012      -21.0941603709  SOLV      1257            0.0000000000
      3885      1268  TIP3      H2            -28.7236359334       15.8700170129      -20.1008642624  SOLV      1257            0.0000000000
      3886      1269  TIP3      OH2           -25.5476202349       14.5325548543      -24.4179096642  SOLV      1258            0.0000000000
      3887      1269  TIP3      H1            -26.3810088705       15.0479097514      -24.4651822866  SOLV      1258            0.0000000000
      3888      1269  TIP3      H2            -25.0720088503       14.8461401033      -25.2223043250  SOLV      1258            0.0000000000
      3889      1270  TIP3      OH2           -20.4729173747       18.4812845884      -23.1194783434  SOLV      1259            0.0000000000
      3890      1270  TIP3      H1            -19.6926378294       18.1312983521      -23.5682105963  SOLV      1259            0.0000000000
      3891      1270  TIP3      H2            -20.5638441210       17.8557652703      -22.3747828389  SOLV      1259            0.0000000000
      3892      1271  TIP3      OH2           -24.4250208133       12.3768103065      -23.1765854682  SOLV      1260            0.0000000000
      3893      1271  TIP3      H1            -24.4151435553       11.5855552428      -23.7525258587  SOLV      1260            0.0000000000
      3894      1271  TIP3      H2            -24.8457314859       13.0484858943      -23.7566749443  SOLV      1260            0.0000000000
      3895      1272  TIP3      OH2           -24.3953637558       10.2586245113      -25.1142023748  SOLV      1261            0.0000000000
      3896      1272  TIP3      H1            -24.1097222376       10.6081179490      -25.9738540472  SOLV      1261            0.0000000000
      3897      1272  TIP3      H2            -25.3329289653       10.0253350705      -25.2902032410  SOLV      1261            0.0000000000
      3898      1273  TIP3      OH2           -24.1759592456       15.5453822145      -26.4889764476  SOLV      1262            0.0000000000
      3899      1273  TIP3      H1            -23.2585958343       15.6438319076      -26.7768375203  SOLV      1262            0.0000000000
      3900      1273  TIP3      H2            -24.5956040650       16.3470765294      -26.8404816317  SOLV      1262            0.0000000000
      3901      1274  TIP3      OH2           -18.3839115608       15.2049339737      -22.6294036039  SOLV      1263            0.0000000000
      3902      1274  TIP3      H1            -17.9495890670       14.4296792418      -22.2285010959  SOLV      1263            0.0000000000
      3903      1274  TIP3      H2            -17.6269246784       15.7069647918      -22.9602024275  SOLV      1263            0.0000000000
      3904      1275  TIP3      OH2           -17.9028221453       17.7651551406      -25.2279231572  SOLV      1264            0.0000000000
      3905      1275  TIP3      H1            -18.4807012208       18.3239564925      -25.7982437867  SOLV      1264            0.0000000000
      3906      1275  TIP3      H2            -17.0216987018       17.9852783300      -25.6056271824  SOLV      1264            0.0000000000
      3907      1276  TIP3      OH2           -25.6760239069       13.4120551278      -20.8401198238  SOLV      1265            0.0000000000
      3908      1276  TIP3      H1            -26.3307423687       12.6961333465      -20.6958483825  SOLV      1265            0.0000000000
      3909      1276  TIP3      H2            -25.3211808409       13.1687016923      -21.7198516170  SOLV      1265            0.0000000000
      3910      1277  TIP3      OH2           -23.0802826027        7.8195779390      -24.4309910645  SOLV      1266            0.0000000000
      3911      1277  TIP3      H1            -23.5950053064        8.6280604814      -24.6290371722  SOLV      1266            0.0000000000
      3912      1277  TIP3      H2            -23.7640992204        7.1227771492      -24.5085192792  SOLV      1266            0.0000000000
      3913      1278  TIP3      OH2           -21.8072697564       12.8689358928      -22.2578707579  SOLV      1267            0.0000000000
      3914      1278  TIP3      H1            -21.9061305015       12.6846806797      -21.3057635086  SOLV      1267            0.0000000000
      3915      1278  TIP3      H2            -22.7069550632       12.6235017420      -22.5610369224  SOLV      1267            0.0000000000
      3916      1279  TIP3      OH2           -19.4550401652       12.3405368338      -23.7363487535  SOLV      1268            0.0000000000
      3917      1279  TIP3      H1            -20.1625600181       12.3645882041      -23.0623248063  SOLV      1268            0.0000000000
      3918      1279  TIP3      H2            -18.6773978642       12.0592145344      -23.2065767794  SOLV      1268            0.0000000000
      3919      1280  TIP3      OH2           -17.1287904169       11.7530458604      -22.3298983112  SOLV      1269            0.0000000000
      3920      1280  TIP3      H1            -16.9951055642       10.8060424928      -22.1097319895  SOLV      1269            0.0000000000
      3921      1280  TIP3      H2            -17.2060620794       12.1720668634      -21.4463865981  SOLV      1269            0.0000000000
      3922      1281  TIP3      OH2           -27.2883044022       11.2528615147      -20.3133747398  SOLV      1270            0.0000000000
      3923      1281  TIP3      H1            -27.2660301299       10.3358139280      -20.6562865460  SOLV      1270            0.0000000000
      3924      1281  TIP3      H2            -26.8601693164       11.1192181267      -19.4416668932  SOLV      1270            0.0000000000
      3925      1282  TIP3      OH2           -22.1071021638        7.9629355346      -21.8578441376  SOLV      1271            0.0000000000
      3926      1282  TIP3      H1            -21.4539534354        7.2329402002      -21.8769959632  SOLV      1271            0.0000000000
      3927      1282  TIP3      H2            -22.5073394276        7.8686100099      -22.7438521546  SOLV      1271            0.0000000000
      3928      1283  TIP3      OH2           -21.4369598785       10.0948183328      -20.2758771407  SOLV      1272            0.0000000000
      3929      1283  TIP3      H1            -21.6256358481        9.3590781230      -20.9001321112  SOLV      1272            0.0000000000
      3930      1283  TIP3      H2            -22.2434326433       10.6419464866      -20.3633986293  SOLV      1272            0.0000000000
      3931      1284  TIP3      OH2           -16.5164044453       24.1839532318      -32.8164410120  SOLV      1273            0.0000000000
      3932      1284  TIP3      H1            -16.0479158862       24.7664042722      -32.1923249998  SOLV      1273            0.0000000000
      3933      1284  TIP3      H2            -16.5188161004       24.7194097850      -33.6373541524  SOLV      1273            0.0000000000
      3934      1285  TIP3      OH2           -16.0473427428       24.7972794193      -30.0468353161  SOLV      1274            0.0000000000
      3935      1285  TIP3      H1            -16.5407925243       23.9663874674      -30.2124360387  SOLV      1274            0.0000000000
      3936      1285  TIP3      H2            -15.3711695967       24.4504467201      -29.4373415240  SOLV      1274            0.0000000000
      3937      1286  TIP3      OH2           -15.9425808876       21.7828339824      -24.5382670876  SOLV      1275            0.0000000000
      3938      1286  TIP3      H1            -16.6454475676       21.8776203241      -23.8639921727  SOLV      1275            0.0000000000
      3939      1286  TIP3      H2            -15.5028480811       22.6553895680      -24.4840742442  SOLV      1275            0.0000000000
      3940      1287  TIP3      OH2           -17.9994861368       15.9242451609      -38.3259848962  SOLV      1276            0.0000000000
      3941      1287  TIP3      H1            -17.6599070906       16.8480302550      -38.3168158786  SOLV      1276            0.0000000000
      3942      1287  TIP3      H2            -17.3374010303       15.5276616441      -37.7171658749  SOLV      1276            0.0000000000
      3943      1288  TIP3      OH2           -16.4055626950       15.2674608964      -36.2242733118  SOLV      1277            0.0000000000
      3944      1288  TIP3      H1            -17.1025202728       15.0596646545      -35.5690511774  SOLV      1277            0.0000000000
      3945      1288  TIP3      H2            -15.8140245923       15.8675002608      -35.7212922372  SOLV      1277            0.0000000000
      3946      1289  TIP3      OH2           -15.9114585627       19.3929932415      -31.8969868436  SOLV      1278            0.0000000000
      3947      1289  TIP3      H1            -15.3983097455       18.7666638154      -32.4405012539  SOLV      1278            0.0000000000
      3948      1289  TIP3      H2            -15.8009366873       20.2318135167      -32.4119398212  SOLV      1278            0.0000000000
      3949      1290  TIP3      OH2           -17.4497172123       22.4746905432      -29.8142797430  SOLV      1279            0.0000000000
      3950      1290  TIP3      H1            -18.2016108346       22.9583947342      -29.4177575692  SOLV      1279            0.0000000000
      3951      1290  TIP3      H2            -17.8963537066       21.9371688751      -30.5056370226  SOLV      1279            0.0000000000
      3952      1291  TIP3      OH2           -18.5362199045       14.0913900924      -34.8291639221  SOLV      1280            0.0000000000
      3953      1291  TIP3      H1            -18.3404349368       13.1481365601      -34.9731886302  SOLV      1280            0.0000000000
      3954      1291  TIP3      H2            -18.5475450780       14.1830006257      -33.8521880516  SOLV      1280            0.0000000000
      3955      1292  TIP3      OH2           -15.4215520697       18.4225816300      -26.2523509204  SOLV      1281            0.0000000000
      3956      1292  TIP3      H1            -14.7249032265       17.7403789697      -26.3780758617  SOLV      1281            0.0000000000
      3957      1292  TIP3      H2            -15.2124644197       19.0644050004      -26.9479907295  SOLV      1281            0.0000000000
      3958      1293  TIP3      OH2           -13.6049826902       16.4098922425      -26.2398422705  SOLV      1282            0.0000000000
      3959      1293  TIP3      H1            -14.3547241669       15.9292371122      -25.8242698157  SOLV      1282            0.0000000000
      3960      1293  TIP3      H2            -12.8776668454       15.7804724920      -26.0385086740  SOLV      1282            0.0000000000
      3961      1294  TIP3      OH2           -19.1451649005        8.0711790391      -40.0755375948  SOLV      1283            0.0000000000
      3962      1294  TIP3      H1            -18.5651263882        8.3073214024      -39.3362717931  SOLV      1283            0.0000000000
      3963      1294  TIP3      H2            -19.9331230174        7.7391333955      -39.6339502642  SOLV      1283            0.0000000000
      3964      1295  TIP3      OH2           -18.2853294027       11.3217863112      -35.7577699166  SOLV      1284            0.0000000000
      3965      1295  TIP3      H1            -17.8664099647       10.4425121964      -35.6275324251  SOLV      1284            0.0000000000
      3966      1295  TIP3      H2            -17.8520084733       11.5877461044      -36.5898043660  SOLV      1284            0.0000000000
      3967      1296  TIP3      OH2           -16.7788597924       13.0301272171      -30.9562945698  SOLV      1285            0.0000000000
      3968      1296  TIP3      H1            -15.9164349791       13.2621317230      -31.3718076538  SOLV      1285            0.0000000000
      3969      1296  TIP3      H2            -16.6238228879       13.4092581038      -30.0671942484  SOLV      1285            0.0000000000
      3970      1297  TIP3      OH2           -16.0631372586       14.5062989176      -28.6876329345  SOLV      1286            0.0000000000
      3971      1297  TIP3      H1            -16.8129289679       14.8379522107      -28.1588602260  SOLV      1286            0.0000000000
      3972      1297  TIP3      H2            -15.7299044893       15.3318559492      -29.1007488227  SOLV      1286            0.0000000000
      3973      1298  TIP3      OH2           -29.9534591468       11.7108501079      -20.9478257913  SOLV      1287            0.0000000000
      3974      1298  TIP3      H1            -28.9914422029       11.6993852148      -20.7853330189  SOLV      1287            0.0000000000
      3975      1298  TIP3      H2            -30.2153177495       10.8821143654      -20.4865708441  SOLV      1287            0.0000000000
      3976      1299  TIP3      OH2           -11.5736606933       10.4652203567      -23.1222410795  SOLV      1288            0.0000000000
      3977      1299  TIP3      H1            -10.9477180199        9.8122488550      -23.5017329195  SOLV      1288            0.0000000000
      3978      1299  TIP3      H2            -11.8606974253       10.9583121200      -23.9183132350  SOLV      1288            0.0000000000
      3979      1300  TIP3      OH2           -17.2230398132        8.7604315111      -35.5629521841  SOLV      1289            0.0000000000
      3980      1300  TIP3      H1            -16.8000855166        8.6288330695      -34.6871512101  SOLV      1289            0.0000000000
      3981      1300  TIP3      H2            -17.8973482025        8.0494209517      -35.5459075332  SOLV      1289            0.0000000000
      3982      1301  TIP3      OH2           -29.8619212877        8.8394603396      -26.6491294276  SOLV      1290            0.0000000000
      3983      1301  TIP3      H1            -29.3675295712        8.0554198385      -26.9492951887  SOLV      1290            0.0000000000
      3984      1301  TIP3      H2            -29.5426515039        9.5312412007      -27.2545346741  SOLV      1290            0.0000000000
      3985      1302  TIP3      OH2           -12.8744748038       11.7966084575      -25.1197061472  SOLV      1291            0.0000000000
      3986      1302  TIP3      H1            -13.7054013467       12.2243892725      -24.8320704877  SOLV      1291            0.0000000000
      3987      1302  TIP3      H2            -13.2386818250       11.0533612953      -25.6415228718  SOLV      1291            0.0000000000
      3988      1303  TIP3      OH2           -16.3825028313        8.2966866639      -39.1954990108  SOLV      1292            0.0000000000
      3989      1303  TIP3      H1            -15.9659315906        7.4922496615      -39.5273072690  SOLV      1292            0.0000000000
      3990      1303  TIP3      H2            -16.4934357678        8.7866541892      -40.0362960996  SOLV      1292            0.0000000000
      3991      1304  TIP3      OH2           -30.2230594188        7.1821726943      -23.4699034634  SOLV      1293            0.0000000000
      3992      1304  TIP3      H1            -30.7158417227        7.2578786056      -22.6349063958  SOLV      1293            0.0000000000
      3993      1304  TIP3      H2            -30.8478655795        7.6033431950      -24.0933098707  SOLV      1293            0.0000000000
      3994      1305  TIP3      OH2           -29.7824850086       21.3800311025      -22.5103332316  SOLV      1294            0.0000000000
      3995      1305  TIP3      H1            -30.6832385514       21.7233038531      -22.5713825163  SOLV      1294            0.0000000000
      3996      1305  TIP3      H2            -29.6300706710       21.3836484087      -21.5562735500  SOLV      1294            0.0000000000
      3997      1306  TIP3      OH2           -23.5154815779       24.0997622570      -25.9409491075  SOLV      1295            0.0000000000
      3998      1306  TIP3      H1            -23.1771083172       24.3026082538      -25.0501303535  SOLV      1295            0.0000000000
      3999      1306  TIP3      H2            -22.9670315883       24.6967433039      -26.4935685407  SOLV      1295            0.0000000000
      4000      1307  TIP3      OH2           -21.6134786164       25.5795728572      -27.2435282369  SOLV      1296            0.0000000000
      4001      1307  TIP3      H1            -20.8016577801       25.1240318306      -27.4897005042  SOLV      1296            0.0000000000
      4002      1307  TIP3      H2            -21.2489851298       26.2963071444      -26.6836531814  SOLV      1296            0.0000000000
      4003      1308  TIP3      OH2           -13.8627413812        9.3852071877      -26.2362487808  SOLV      1297            0.0000000000
      4004      1308  TIP3      H1            -14.7706280584        9.2230274109      -26.5456621778  SOLV      1297            0.0000000000
      4005      1308  TIP3      H2            -13.4852228752        8.4771382504      -26.3042960831  SOLV      1297            0.0000000000
      4006      1309  TIP3      OH2           -21.9711888260        8.4082823458      -30.2545842886  SOLV      1298            0.0000000000
      4007      1309  TIP3      H1            -22.2804516088        7.7460432348      -29.6067294583  SOLV      1298            0.0000000000
      4008      1309  TIP3      H2            -21.0872905117        8.0666461694      -30.5054675693  SOLV      1298            0.0000000000
      4009      1310  TIP3      OH2           -16.6522117432        7.3932329027      -31.0125021427  SOLV      1299            0.0000000000
      4010      1310  TIP3      H1            -16.2836813650        7.9102297011      -31.7631697356  SOLV      1299            0.0000000000
      4011      1310  TIP3      H2            -17.5985617571        7.6101254271      -31.0637635602  SOLV      1299            0.0000000000
      4012      1311  TIP3      OH2           -15.6658361799        8.3696167974      -33.3523043679  SOLV      1300            0.0000000000
      4013      1311  TIP3      H1            -14.9072476110        7.8543068051      -33.6994018867  SOLV      1300            0.0000000000
      4014      1311  TIP3      H2            -15.3267453580        9.2855375657      -33.4888813189  SOLV      1300            0.0000000000
      4015      1312  TIP3      OH2           -29.2008118249        5.6805944427      -29.9287877736  SOLV      1301            0.0000000000
      4016      1312  TIP3      H1            -30.1006913199        5.2946013644      -29.8473942300  SOLV      1301            0.0000000000
      4017      1312  TIP3      H2            -28.6889922923        4.8567444950      -30.0357521445  SOLV      1301            0.0000000000
      4018      1313  TIP3      OH2           -24.8352951177        5.9424701966      -31.0393058090  SOLV      1302            0.0000000000
      4019      1313  TIP3      H1            -24.3383398005        6.4470972418      -31.7002284990  SOLV      1302            0.0000000000
      4020      1313  TIP3      H2            -24.5315596293        6.3444091948      -30.2101288199  SOLV      1302            0.0000000000
      4021      1314  TIP3      OH2           -19.5190310921        7.4558740014      -31.2340708317  SOLV      1303            0.0000000000
      4022      1314  TIP3      H1            -19.3730917019        7.0164627246      -32.0828398589  SOLV      1303            0.0000000000
      4023      1314  TIP3      H2            -19.6019553071        6.6745546361      -30.6331980382  SOLV      1303            0.0000000000
      4024      1315  TIP3      OH2           -19.1477242195        6.7382257616      -35.6078340114  SOLV      1304            0.0000000000
      4025      1315  TIP3      H1            -20.0118495171        7.1675521911      -35.4755613506  SOLV      1304            0.0000000000
      4026      1315  TIP3      H2            -19.2990669891        5.8752793662      -35.1620351787  SOLV      1304            0.0000000000
      4027      1316  TIP3      OH2           -25.0835573412        8.1253322149      -34.7727019927  SOLV      1305            0.0000000000
      4028      1316  TIP3      H1            -24.5244868141        7.5159128027      -34.2651905440  SOLV      1305            0.0000000000
      4029      1316  TIP3      H2            -25.4344480514        8.7002416870      -34.0858888409  SOLV      1305            0.0000000000
      4030      1317  TIP3      OH2           -27.3015982240        8.5502633321      -21.0088336544  SOLV      1306            0.0000000000
      4031      1317  TIP3      H1            -27.7687394498        8.0922554812      -20.2926608387  SOLV      1306            0.0000000000
      4032      1317  TIP3      H2            -26.3644961639        8.4448745367      -20.7234159602  SOLV      1306            0.0000000000
      4033      1318  TIP3      OH2           -24.7424091321        8.5073747915      -19.9085532280  SOLV      1307            0.0000000000
      4034      1318  TIP3      H1            -23.8984816497        8.1977806496      -20.2785537574  SOLV      1307            0.0000000000
      4035      1318  TIP3      H2            -24.7964319807        7.9491387173      -19.0945562116  SOLV      1307            0.0000000000
      4036      1319  TIP3      OH2           -16.4945425765        9.0705782905      -21.9093274377  SOLV      1308            0.0000000000
      4037      1319  TIP3      H1            -16.3327096779        8.7421058215      -20.9956497443  SOLV      1308            0.0000000000
      4038      1319  TIP3      H2            -15.5927369176        9.0233027334      -22.2896285745  SOLV      1308            0.0000000000
      4039      1320  TIP3      OH2           -17.1320984418       24.6033291531      -26.9339344330  SOLV      1309            0.0000000000
      4040      1320  TIP3      H1            -17.8682370083       24.2953940021      -27.4969880491  SOLV      1309            0.0000000000
      4041      1320  TIP3      H2            -17.3454746091       25.5582420355      -26.8801340671  SOLV      1309            0.0000000000
      4042      1321  TIP3      OH2            -4.9793401472       18.2270157098      -35.2997515340  SOLV      1310            0.0000000000
      4043      1321  TIP3      H1             -4.6522526046       18.0651294065      -34.3963403797  SOLV      1310            0.0000000000
      4044      1321  TIP3      H2             -5.2034946923       17.3248486651      -35.5924776646  SOLV      1310            0.0000000000
      4045      1322  TIP3      OH2           -11.4183770024       17.2398533899      -31.8939288975  SOLV      1311            0.0000000000
      4046      1322  TIP3      H1            -11.1488756560       16.5043439939      -31.3144515571  SOLV      1311            0.0000000000
      4047      1322  TIP3      H2            -10.7505870045       17.9033088959      -31.6715976924  SOLV      1311            0.0000000000
      4048      1323  TIP3      OH2           -12.0224390271       21.2613949798      -34.2129700973  SOLV      1312            0.0000000000
      4049      1323  TIP3      H1            -12.2652697240       20.3258557077      -34.3103846243  SOLV      1312            0.0000000000
      4050      1323  TIP3      H2            -11.0588337752       21.1946574096      -34.3756291565  SOLV      1312            0.0000000000
      4051      1324  TIP3      OH2           -14.5993751154       13.2278615299      -36.8687402571  SOLV      1313            0.0000000000
      4052      1324  TIP3      H1            -15.0664460938       14.0325511781      -36.5659345966  SOLV      1313            0.0000000000
      4053      1324  TIP3      H2            -15.3549701604       12.6960203541      -37.1708648560  SOLV      1313            0.0000000000
      4054      1325  TIP3      OH2           -14.1547036507       16.2886007037      -35.0123263002  SOLV      1314            0.0000000000
      4055      1325  TIP3      H1            -13.5974321652       15.5316144257      -34.7278576391  SOLV      1314            0.0000000000
      4056      1325  TIP3      H2            -13.6236767235       16.6825030770      -35.7192879839  SOLV      1314            0.0000000000
      4057      1326  TIP3      OH2            -6.7475699741       20.4850297718      -35.1150133050  SOLV      1315            0.0000000000
      4058      1326  TIP3      H1             -6.3484421418       19.6631055808      -35.4630500942  SOLV      1315            0.0000000000
      4059      1326  TIP3      H2             -5.9310797103       20.8597092057      -34.7045835982  SOLV      1315            0.0000000000
      4060      1327  TIP3      OH2            -2.8779706276       15.1046970157      -33.9294888238  SOLV      1316            0.0000000000
      4061      1327  TIP3      H1             -2.0931478140       14.5119554491      -33.9534404962  SOLV      1316            0.0000000000
      4062      1327  TIP3      H2             -3.1712125729       14.9718161241      -34.8659850457  SOLV      1316            0.0000000000
      4063      1328  TIP3      OH2            -9.0561654164       12.2178801676      -35.0045354674  SOLV      1317            0.0000000000
      4064      1328  TIP3      H1             -9.1224809356       12.8922569421      -35.7016193572  SOLV      1317            0.0000000000
      4065      1328  TIP3      H2             -9.4487548101       11.4424164317      -35.4634943893  SOLV      1317            0.0000000000
      4066      1329  TIP3      OH2           -12.6332719009       14.1967523215      -34.0417703645  SOLV      1318            0.0000000000
      4067      1329  TIP3      H1            -11.8376239045       13.9937754630      -33.5138989253  SOLV      1318            0.0000000000
      4068      1329  TIP3      H2            -12.4588005452       13.6443278544      -34.8313261619  SOLV      1318            0.0000000000
      4069      1330  TIP3      OH2            -8.1047287252       16.2836965171      -36.1296455385  SOLV      1319            0.0000000000
      4070      1330  TIP3      H1             -7.2492178495       15.8831240076      -35.8565336372  SOLV      1319            0.0000000000
      4071      1330  TIP3      H2             -8.6084419853       15.5070485478      -36.4296167217  SOLV      1319            0.0000000000
      4072      1331  TIP3      OH2             4.1898014361       15.7262039397      -33.4618807397  SOLV      1320            0.0000000000
      4073      1331  TIP3      H1              3.3348188679       16.1379071848      -33.2231319235  SOLV      1320            0.0000000000
      4074      1331  TIP3      H2              4.7430686509       15.9444122592      -32.6958684298  SOLV      1320            0.0000000000
      4075      1332  TIP3      OH2            -9.0626551086       12.0724542376      -30.6419174165  SOLV      1321            0.0000000000
      4076      1332  TIP3      H1             -9.6583432475       12.4533557126      -31.3149327390  SOLV      1321            0.0000000000
      4077      1332  TIP3      H2             -9.5989091379       12.2199625134      -29.8322770980  SOLV      1321            0.0000000000
      4078      1333  TIP3      OH2            -7.9108468946       19.7167857916      -32.6694844935  SOLV      1322            0.0000000000
      4079      1333  TIP3      H1             -8.5399442132       20.3786129165      -32.3014768106  SOLV      1322            0.0000000000
      4080      1333  TIP3      H2             -7.5806641047       20.1968403429      -33.4524354727  SOLV      1322            0.0000000000
      4081      1334  TIP3      OH2           -10.3328957818       13.1870219844      -32.8278691961  SOLV      1323            0.0000000000
      4082      1334  TIP3      H1             -9.6862532404       13.8961629513      -32.6202785840  SOLV      1323            0.0000000000
      4083      1334  TIP3      H2             -9.8712248930       12.7600429656      -33.5889398759  SOLV      1323            0.0000000000
      4084      1335  TIP3      OH2            -9.6504208770       21.6935438230      -31.7546896484  SOLV      1324            0.0000000000
      4085      1335  TIP3      H1             -9.8871557808       22.5238453763      -32.2105009667  SOLV      1324            0.0000000000
      4086      1335  TIP3      H2            -10.4668967137       21.5698225966      -31.2231031775  SOLV      1324            0.0000000000
      4087      1336  TIP3      OH2             1.5180801126       12.8554514553      -33.5560554477  SOLV      1325            0.0000000000
      4088      1336  TIP3      H1              0.5535278705       13.0188963346      -33.5919332916  SOLV      1325            0.0000000000
      4089      1336  TIP3      H2              1.7284228130       12.9223930718      -34.4937478903  SOLV      1325            0.0000000000
      4090      1337  TIP3      OH2            -5.3380265883        9.6863716198      -33.0195436283  SOLV      1326            0.0000000000
      4091      1337  TIP3      H1             -5.2751963542        9.0091078494      -33.7269894851  SOLV      1326            0.0000000000
      4092      1337  TIP3      H2             -6.2831321962        9.6654599114      -32.7731276553  SOLV      1326            0.0000000000
      4093      1338  TIP3      OH2            -0.4861561738       18.0587805109      -32.0768340922  SOLV      1327            0.0000000000
      4094      1338  TIP3      H1             -0.3819120599       18.7768180743      -31.4153238250  SOLV      1327            0.0000000000
      4095      1338  TIP3      H2             -1.1638240791       18.4473031894      -32.6560263608  SOLV      1327            0.0000000000
      4096      1339  TIP3      OH2            -9.4700332418       21.0147424355      -35.1546554621  SOLV      1328            0.0000000000
      4097      1339  TIP3      H1             -9.5130938706       21.7527329642      -35.7953966951  SOLV      1328            0.0000000000
      4098      1339  TIP3      H2             -8.5184195464       20.8059337061      -35.1527777909  SOLV      1328            0.0000000000
      4099      1340  TIP3      OH2            -8.8755305359       17.3034443827      -33.6318568864  SOLV      1329            0.0000000000
      4100      1340  TIP3      H1             -8.5728440027       17.1661247033      -34.5513643060  SOLV      1329            0.0000000000
      4101      1340  TIP3      H2             -8.5407199474       18.1974109739      -33.4154814351  SOLV      1329            0.0000000000
      4102      1341  TIP3      OH2            -7.6956529696       22.8482291113      -30.2250386863  SOLV      1330            0.0000000000
      4103      1341  TIP3      H1             -8.3221627651       23.4910367292      -29.8270635182  SOLV      1330            0.0000000000
      4104      1341  TIP3      H2             -8.3119009868       22.3419407254      -30.7953047233  SOLV      1330            0.0000000000
      4105      1342  TIP3      OH2           -10.0480321052       18.4146947955      -29.3188571882  SOLV      1331            0.0000000000
      4106      1342  TIP3      H1             -9.9789751386       19.3027768392      -28.9128391126  SOLV      1331            0.0000000000
      4107      1342  TIP3      H2            -10.9839362576       18.2092375941      -29.1071814100  SOLV      1331            0.0000000000
      4108      1343  TIP3      OH2            -9.6946533596       24.5974473917      -29.4665547852  SOLV      1332            0.0000000000
      4109      1343  TIP3      H1            -10.0147315288       24.6133369857      -30.3917252977  SOLV      1332            0.0000000000
      4110      1343  TIP3      H2            -10.5110113614       24.3823872836      -28.9638236622  SOLV      1332            0.0000000000
      4111      1344  TIP3      OH2           -13.8767695783       19.8991307205      -29.9954283731  SOLV      1333            0.0000000000
      4112      1344  TIP3      H1            -14.5428194015       19.7261842030      -30.6940502646  SOLV      1333            0.0000000000
      4113      1344  TIP3      H2            -13.5075992723       19.0106448340      -29.8291896534  SOLV      1333            0.0000000000
      4114      1345  TIP3      OH2           -15.3530510691       21.6434177564      -33.1925774031  SOLV      1334            0.0000000000
      4115      1345  TIP3      H1            -14.6746440493       21.8259673242      -33.8631374025  SOLV      1334            0.0000000000
      4116      1345  TIP3      H2            -15.6179357619       22.5556313819      -32.9576317719  SOLV      1334            0.0000000000
      4117      1346  TIP3      OH2            -5.5983603712       24.0622468241      -31.4498081048  SOLV      1335            0.0000000000
      4118      1346  TIP3      H1             -5.7487625600       25.0018934997      -31.2338250038  SOLV      1335            0.0000000000
      4119      1346  TIP3      H2             -6.3842076784       23.6475082277      -31.0306107265  SOLV      1335            0.0000000000
      4120      1347  TIP3      OH2             2.1639354203       17.5573077043      -30.2881658793  SOLV      1336            0.0000000000
      4121      1347  TIP3      H1              1.4924521799       17.7173791487      -30.9609874277  SOLV      1336            0.0000000000
      4122      1347  TIP3      H2              2.3661929875       16.6099499056      -30.4292659442  SOLV      1336            0.0000000000
      4123      1348  TIP3      OH2           -11.8417626047       21.7475074967      -30.1132231495  SOLV      1337            0.0000000000
      4124      1348  TIP3      H1            -11.3492327951       21.5190789764      -29.3007685625  SOLV      1337            0.0000000000
      4125      1348  TIP3      H2            -12.6017034784       21.1295127738      -30.0759428165  SOLV      1337            0.0000000000
      4126      1349  TIP3      OH2            -8.0657179438        9.9650083814      -32.1507515067  SOLV      1338            0.0000000000
      4127      1349  TIP3      H1             -8.9211683516        9.6390922245      -32.4962005927  SOLV      1338            0.0000000000
      4128      1349  TIP3      H2             -8.3848871845       10.7045420203      -31.5941106290  SOLV      1338            0.0000000000
      4129      1350  TIP3      OH2            -2.4886513011       11.1166510405      -30.2504321663  SOLV      1339            0.0000000000
      4130      1350  TIP3      H1             -1.7909415502       10.7962840233      -29.6369333652  SOLV      1339            0.0000000000
      4131      1350  TIP3      H2             -3.3158452667       10.8584845767      -29.7897518736  SOLV      1339            0.0000000000
      4132      1351  TIP3      OH2            -0.3151036084       15.3630014057      -31.2507000589  SOLV      1340            0.0000000000
      4133      1351  TIP3      H1             -0.7022890858       15.3433986291      -30.3482443864  SOLV      1340            0.0000000000
      4134      1351  TIP3      H2             -0.4203301265       16.3029369427      -31.4972106735  SOLV      1340            0.0000000000
      4135      1352  TIP3      OH2            -8.4466210491       15.0855505040      -32.1579820143  SOLV      1341            0.0000000000
      4136      1352  TIP3      H1             -8.9434518018       15.2687876206      -31.3306049658  SOLV      1341            0.0000000000
      4137      1352  TIP3      H2             -8.6281225479       15.9131844851      -32.6646862859  SOLV      1341            0.0000000000
      4138      1353  TIP3      OH2            -9.5697972681       13.8900134606      -37.2222255822  SOLV      1342            0.0000000000
      4139      1353  TIP3      H1            -10.5023536163       13.7365736858      -36.9462435333  SOLV      1342            0.0000000000
      4140      1353  TIP3      H2             -9.3848684250       13.0680694497      -37.7053475520  SOLV      1342            0.0000000000
      4141      1354  TIP3      OH2            -3.0777028679       17.6524651595      -28.8388821120  SOLV      1343            0.0000000000
      4142      1354  TIP3      H1             -3.2739291822       16.9298328137      -28.2004373691  SOLV      1343            0.0000000000
      4143      1354  TIP3      H2             -2.1421594589       17.8254498061      -28.6166802705  SOLV      1343            0.0000000000
      4144      1355  TIP3      OH2           -10.2327728211       15.3461449935      -30.0569893243  SOLV      1344            0.0000000000
      4145      1355  TIP3      H1            -10.1228751247       16.0155030570      -29.3665151146  SOLV      1344            0.0000000000
      4146      1355  TIP3      H2            -10.4147041260       14.5426523550      -29.5292620455  SOLV      1344            0.0000000000
      4147      1356  TIP3      OH2           -14.4112648360       10.5786965910      -34.2055314486  SOLV      1345            0.0000000000
      4148      1356  TIP3      H1            -13.7025852620       10.9532814907      -33.6404221791  SOLV      1345            0.0000000000
      4149      1356  TIP3      H2            -13.9498649091       10.3519839350      -35.0232910293  SOLV      1345            0.0000000000
      4150      1357  TIP3      OH2            -3.4885679361       17.6982445580      -32.9517787464  SOLV      1346            0.0000000000
      4151      1357  TIP3      H1             -3.0808150953       16.9629149386      -33.4433573942  SOLV      1346            0.0000000000
      4152      1357  TIP3      H2             -3.3527067193       17.4058445612      -32.0385797472  SOLV      1346            0.0000000000
      4153      1358  TIP3      OH2            -6.3862480526       12.3132075806      -36.1352136820  SOLV      1347            0.0000000000
      4154      1358  TIP3      H1             -7.0835666172       12.0044030772      -35.5341773450  SOLV      1347            0.0000000000
      4155      1358  TIP3      H2             -5.5760088517       11.9230560819      -35.7517939217  SOLV      1347            0.0000000000
      4156      1359  TIP3      OH2           -11.9668640290       12.8096013294      -36.3590408047  SOLV      1348            0.0000000000
      4157      1359  TIP3      H1            -12.9149840199       12.8987919749      -36.6261474369  SOLV      1348            0.0000000000
      4158      1359  TIP3      H2            -11.7994198585       11.8599891437      -36.4967461202  SOLV      1348            0.0000000000
      4159      1360  TIP3      OH2            -1.1436234542       12.9673167858      -34.2836588634  SOLV      1349            0.0000000000
      4160      1360  TIP3      H1             -1.6644433015       12.5557097580      -33.5729530936  SOLV      1349            0.0000000000
      4161      1360  TIP3      H2             -1.2689645460       12.3029692292      -34.9952187237  SOLV      1349            0.0000000000
      4162      1361  TIP3      OH2           -10.2006958958       20.9315661260      -27.9382137910  SOLV      1350            0.0000000000
      4163      1361  TIP3      H1             -9.4043760019       21.2256352525      -27.4536579660  SOLV      1350            0.0000000000
      4164      1361  TIP3      H2            -10.8434209625       20.8816426709      -27.2039510933  SOLV      1350            0.0000000000
      4165      1362  TIP3      OH2            -5.6614298978       15.4198926113      -35.3613059874  SOLV      1351            0.0000000000
      4166      1362  TIP3      H1             -4.9990822028       15.0021345524      -35.9522347463  SOLV      1351            0.0000000000
      4167      1362  TIP3      H2             -5.7356232871       14.7530548359      -34.6669934362  SOLV      1351            0.0000000000
      4168      1363  TIP3      OH2           -10.3066594743       10.3364865191      -36.5632384149  SOLV      1352            0.0000000000
      4169      1363  TIP3      H1            -10.7267014603        9.6010678044      -36.0661478984  SOLV      1352            0.0000000000
      4170      1363  TIP3      H2             -9.6233453376        9.8505402994      -37.0536154312  SOLV      1352            0.0000000000
      4171      1364  TIP3      OH2            -5.7218794626       14.7693704679      -32.3308456728  SOLV      1353            0.0000000000
      4172      1364  TIP3      H1             -6.6633217005       14.6781046608      -32.6011153889  SOLV      1353            0.0000000000
      4173      1364  TIP3      H2             -5.8694821216       15.4488046141      -31.6458209727  SOLV      1353            0.0000000000
      4174      1365  TIP3      OH2            -4.4180714867       21.5937683813      -31.1721346175  SOLV      1354            0.0000000000
      4175      1365  TIP3      H1             -4.1279599848       21.5913406046      -30.2502584438  SOLV      1354            0.0000000000
      4176      1365  TIP3      H2             -4.7360553308       22.5161025859      -31.2827755123  SOLV      1354            0.0000000000
      4177      1366  TIP3      OH2           -11.6583112553       18.4090739680      -34.6134159642  SOLV      1355            0.0000000000
      4178      1366  TIP3      H1            -10.9557021852       18.4132917487      -35.2698786210  SOLV      1355            0.0000000000
      4179      1366  TIP3      H2            -11.2656689652       17.9007841652      -33.8852171098  SOLV      1355            0.0000000000
      4180      1367  TIP3      OH2           -12.6563629442       17.7186423468      -28.6515866205  SOLV      1356            0.0000000000
      4181      1367  TIP3      H1            -12.5543092259       17.5949256427      -27.6868236147  SOLV      1356            0.0000000000
      4182      1367  TIP3      H2            -13.3989050303       17.1168136546      -28.8387498445  SOLV      1356            0.0000000000
      4183      1368  TIP3      OH2            -5.4812092527       18.9725667062      -28.4452659694  SOLV      1357            0.0000000000
      4184      1368  TIP3      H1             -6.0967439587       18.2934937051      -28.7673107794  SOLV      1357            0.0000000000
      4185      1368  TIP3      H2             -4.6158177461       18.6206265717      -28.7438343515  SOLV      1357            0.0000000000
      4186      1369  TIP3      OH2            -2.7289710224       23.9786371873      -32.3930696330  SOLV      1358            0.0000000000
      4187      1369  TIP3      H1             -3.6540187992       24.0400646245      -32.6861632788  SOLV      1358            0.0000000000
      4188      1369  TIP3      H2             -2.7120321356       24.5911122276      -31.6312006505  SOLV      1358            0.0000000000
      4189      1370  TIP3      OH2             3.2642502027       23.1654212690      -32.9051571015  SOLV      1359            0.0000000000
      4190      1370  TIP3      H1              2.9342004942       23.8835909722      -32.3375537525  SOLV      1359            0.0000000000
      4191      1370  TIP3      H2              4.0037473358       23.5662991275      -33.3870452650  SOLV      1359            0.0000000000
      4192      1371  TIP3      OH2            -7.6210204258       25.0378140736      -33.5126566327  SOLV      1360            0.0000000000
      4193      1371  TIP3      H1             -7.3515733285       25.5607319719      -34.2810702747  SOLV      1360            0.0000000000
      4194      1371  TIP3      H2             -6.8018360368       24.5543413622      -33.3139132745  SOLV      1360            0.0000000000
      4195      1372  TIP3      OH2            -4.4293676787       20.8665377036      -33.7706597740  SOLV      1361            0.0000000000
      4196      1372  TIP3      H1             -4.4642240219       21.1209900206      -32.8207513376  SOLV      1361            0.0000000000
      4197      1372  TIP3      H2             -3.6703006861       20.2614481846      -33.7806977405  SOLV      1361            0.0000000000
      4198      1373  TIP3      OH2           -10.6581083781       12.8487194642      -28.5513261674  SOLV      1362            0.0000000000
      4199      1373  TIP3      H1            -11.6287450279       12.8534263320      -28.4377651902  SOLV      1362            0.0000000000
      4200      1373  TIP3      H2            -10.3776615511       12.2910042908      -27.8058620636  SOLV      1362            0.0000000000
      4201      1374  TIP3      OH2           -13.3949840025       23.6621208009      -32.0466284843  SOLV      1363            0.0000000000
      4202      1374  TIP3      H1            -12.9690217371       22.7968396204      -31.9507516433  SOLV      1363            0.0000000000
      4203      1374  TIP3      H2            -12.9469048375       24.1823041263      -31.3747450318  SOLV      1363            0.0000000000
      4204      1375  TIP3      OH2            -2.3650693038       13.3616160962      -31.6924410651  SOLV      1364            0.0000000000
      4205      1375  TIP3      H1             -1.5096894356       13.7389756738      -31.4024618299  SOLV      1364            0.0000000000
      4206      1375  TIP3      H2             -2.3939207039       12.5347663960      -31.1445684845  SOLV      1364            0.0000000000
      4207      1376  TIP3      OH2            -3.4797279951       15.8255847099      -30.7581180457  SOLV      1365            0.0000000000
      4208      1376  TIP3      H1             -3.6740015122       16.6145747520      -30.2056953883  SOLV      1365            0.0000000000
      4209      1376  TIP3      H2             -2.8782081429       15.3816277039      -30.1153557962  SOLV      1365            0.0000000000
      4210      1377  TIP3      OH2             2.3916565831       14.9142347704      -31.1888888733  SOLV      1366            0.0000000000
      4211      1377  TIP3      H1              1.4146917635       14.9202279477      -31.1364759209  SOLV      1366            0.0000000000
      4212      1377  TIP3      H2              2.5227719967       14.3585185293      -31.9691112351  SOLV      1366            0.0000000000
      4213      1378  TIP3      OH2           -10.6922892337        9.1304881433      -32.5312158839  SOLV      1367            0.0000000000
      4214      1378  TIP3      H1            -10.9214449349        8.7551710135      -33.4068392688  SOLV      1367            0.0000000000
      4215      1378  TIP3      H2            -10.7359126355        8.3421206437      -31.9501642259  SOLV      1367            0.0000000000
      4216      1379  TIP3      OH2           -13.5698095882       26.6204986897      -27.7524750344  SOLV      1368            0.0000000000
      4217      1379  TIP3      H1            -12.6843357707       26.5278872326      -27.3485153619  SOLV      1368            0.0000000000
      4218      1379  TIP3      H2            -13.8351660933       25.6874362504      -27.8470630844  SOLV      1368            0.0000000000
      4219      1380  TIP3      OH2            -8.7534731024       26.3840591716      -27.5834837212  SOLV      1369            0.0000000000
      4220      1380  TIP3      H1             -7.8158052455       26.1505655832      -27.5308570992  SOLV      1369            0.0000000000
      4221      1380  TIP3      H2             -9.0480143791       25.7792140495      -28.2974192492  SOLV      1369            0.0000000000
      4222      1381  TIP3      OH2            -2.4692129019       25.5978991954      -30.1211964231  SOLV      1370            0.0000000000
      4223      1381  TIP3      H1             -2.4894973753       24.8469867266      -29.4812043289  SOLV      1370            0.0000000000
      4224      1381  TIP3      H2             -1.6360264879       26.0468948348      -29.8717218661  SOLV      1370            0.0000000000
      4225      1382  TIP3      OH2           -12.2318426317       20.8755726697      -26.0160801580  SOLV      1371            0.0000000000
      4226      1382  TIP3      H1            -12.0863540924       19.9166874274      -25.9063599853  SOLV      1371            0.0000000000
      4227      1382  TIP3      H2            -13.0959437600       20.8891414112      -26.4837900003  SOLV      1371            0.0000000000
      4228      1383  TIP3      OH2            -6.1544826438       21.7423535024      -28.2513122579  SOLV      1372            0.0000000000
      4229      1383  TIP3      H1             -6.6107584906       21.9620142210      -29.0924563461  SOLV      1372            0.0000000000
      4230      1383  TIP3      H2             -5.8790542802       20.8126956688      -28.3969086834  SOLV      1372            0.0000000000
      4231      1384  TIP3      OH2            -1.1450062578       21.7361952307      -32.1839591914  SOLV      1373            0.0000000000
      4232      1384  TIP3      H1             -0.7533811600       22.2803758266      -32.8751023157  SOLV      1373            0.0000000000
      4233      1384  TIP3      H2             -1.9537708051       22.2710031392      -32.0473942214  SOLV      1373            0.0000000000
      4234      1385  TIP3      OH2           -11.0023393026       18.2544004134      -26.1859249070  SOLV      1374            0.0000000000
      4235      1385  TIP3      H1            -10.2800604945       17.6568202508      -26.4097623255  SOLV      1374            0.0000000000
      4236      1385  TIP3      H2            -10.7268087625       18.5591251760      -25.2948280380  SOLV      1374            0.0000000000
      4237      1386  TIP3      OH2            -7.6052726589       17.0854079453      -29.6168071513  SOLV      1375            0.0000000000
      4238      1386  TIP3      H1             -8.4394577043       17.6041032163      -29.5911204128  SOLV      1375            0.0000000000
      4239      1386  TIP3      H2             -7.1526859879       17.4590077480      -30.4033383445  SOLV      1375            0.0000000000
      4240      1387  TIP3      OH2            -2.5368941032       21.0291762438      -28.2482192540  SOLV      1376            0.0000000000
      4241      1387  TIP3      H1             -1.6801178110       20.7820963961      -28.6163343273  SOLV      1376            0.0000000000
      4242      1387  TIP3      H2             -2.6058927827       20.4155556432      -27.4918068406  SOLV      1376            0.0000000000
      4243      1388  TIP3      OH2            -6.4402605436       14.9641085044      -28.3558698968  SOLV      1377            0.0000000000
      4244      1388  TIP3      H1             -6.4849748990       14.1611371233      -28.9141442095  SOLV      1377            0.0000000000
      4245      1388  TIP3      H2             -6.9286153060       15.6251133138      -28.8940920452  SOLV      1377            0.0000000000
      4246      1389  TIP3      OH2            -6.4871851366       12.7997180161      -30.2141188975  SOLV      1378            0.0000000000
      4247      1389  TIP3      H1             -6.2457765456       12.8893269475      -31.1441962877  SOLV      1378            0.0000000000
      4248      1389  TIP3      H2             -7.4332984513       12.5415843774      -30.2908188028  SOLV      1378            0.0000000000
      4249      1390  TIP3      OH2            -6.0517289808       18.0127547001      -31.6435866243  SOLV      1379            0.0000000000
      4250      1390  TIP3      H1             -5.2464413404       18.3615783674      -32.0576318503  SOLV      1379            0.0000000000
      4251      1390  TIP3      H2             -6.7193597896       18.6495971988      -31.9858477534  SOLV      1379            0.0000000000
      4252      1391  TIP3      OH2            -0.4054802156       17.7534127715      -27.7619826156  SOLV      1380            0.0000000000
      4253      1391  TIP3      H1              0.0963100633       16.9810430547      -27.4530278120  SOLV      1380            0.0000000000
      4254      1391  TIP3      H2              0.3011724417       18.3145923848      -28.1148203169  SOLV      1380            0.0000000000
      4255      1392  TIP3      OH2             0.0929802479       20.2122946694      -30.3544736555  SOLV      1381            0.0000000000
      4256      1392  TIP3      H1             -0.4377204870       20.8253499692      -30.9182573862  SOLV      1381            0.0000000000
      4257      1392  TIP3      H2              0.9895674575       20.4052501693      -30.7146616241  SOLV      1381            0.0000000000
      4258      1393  TIP3      OH2            -7.6735174179       15.9774481242      -25.9961592722  SOLV      1382            0.0000000000
      4259      1393  TIP3      H1             -8.3437665481       15.2869462046      -25.8087551916  SOLV      1382            0.0000000000
      4260      1393  TIP3      H2             -7.3305304177       15.6837742275      -26.8617512540  SOLV      1382            0.0000000000
      4261      1394  TIP3      OH2            -5.0964855705       10.4090494098      -29.5051559385  SOLV      1383            0.0000000000
      4262      1394  TIP3      H1             -5.6551760400       11.1797082175      -29.7213766589  SOLV      1383            0.0000000000
      4263      1394  TIP3      H2             -5.7207809820        9.6703934915      -29.6658317718  SOLV      1383            0.0000000000
      4264      1395  TIP3      OH2            -3.8500551889       15.4480103028      -27.3993391822  SOLV      1384            0.0000000000
      4265      1395  TIP3      H1             -3.9338962478       15.2752890740      -26.4421024214  SOLV      1384            0.0000000000
      4266      1395  TIP3      H2             -4.7584984324       15.2017918720      -27.6794006549  SOLV      1384            0.0000000000
      4267      1396  TIP3      OH2            -1.5838738607       14.8915349896      -28.8991684380  SOLV      1385            0.0000000000
      4268      1396  TIP3      H1             -2.2417813120       14.9271486367      -28.1716469192  SOLV      1385            0.0000000000
      4269      1396  TIP3      H2             -0.7795886230       14.6166541626      -28.4005150291  SOLV      1385            0.0000000000
      4270      1397  TIP3      OH2             0.7119248519       14.3338404361      -27.4556575620  SOLV      1386            0.0000000000
      4271      1397  TIP3      H1              0.9089919097       13.3903021691      -27.2717081574  SOLV      1386            0.0000000000
      4272      1397  TIP3      H2              0.7088054331       14.7250664287      -26.5567021529  SOLV      1386            0.0000000000
      4273      1398  TIP3      OH2            -9.2623884237       13.7795823103      -25.4390196664  SOLV      1387            0.0000000000
      4274      1398  TIP3      H1             -9.2624197872       12.8472991516      -25.7374891741  SOLV      1387            0.0000000000
      4275      1398  TIP3      H2             -8.8704153862       13.6744392544      -24.5447709948  SOLV      1387            0.0000000000
      4276      1399  TIP3      OH2            -4.1638960408       10.5122858788      -26.9332110391  SOLV      1388            0.0000000000
      4277      1399  TIP3      H1             -3.5217312853        9.7766615760      -26.9935702841  SOLV      1388            0.0000000000
      4278      1399  TIP3      H2             -4.5742350414       10.4574376094      -27.8200858783  SOLV      1388            0.0000000000
      4279      1400  TIP3      OH2            -3.4763401944       12.6800620609      -25.4047557000  SOLV      1389            0.0000000000
      4280      1400  TIP3      H1             -3.6875995176       11.9364838832      -26.0129059510  SOLV      1389            0.0000000000
      4281      1400  TIP3      H2             -4.2940669251       13.2176329933      -25.4493864611  SOLV      1389            0.0000000000
      4282      1401  TIP3      OH2           -15.4369602616       23.0693671008      -35.5520899069  SOLV      1390            0.0000000000
      4283      1401  TIP3      H1            -16.0955178946       22.3928110303      -35.3589897476  SOLV      1390            0.0000000000
      4284      1401  TIP3      H2            -15.9642706948       23.8910694224      -35.5176736268  SOLV      1390            0.0000000000
      4285      1402  TIP3      OH2             2.0367180733       24.3452535248      -29.7890854616  SOLV      1391            0.0000000000
      4286      1402  TIP3      H1              1.3432546292       24.4024188346      -29.1009317204  SOLV      1391            0.0000000000
      4287      1402  TIP3      H2              2.4601052060       25.2227020197      -29.6913968296  SOLV      1391            0.0000000000
      4288      1403  TIP3      OH2           -14.1101890204       17.3744646371      -32.4712976961  SOLV      1392            0.0000000000
      4289      1403  TIP3      H1            -14.1753518357       17.0960491579      -33.4103801241  SOLV      1392            0.0000000000
      4290      1403  TIP3      H2            -13.1343343637       17.4300222048      -32.3684605389  SOLV      1392            0.0000000000
      4291      1404  TIP3      OH2             2.4767493287       20.8296624112      -31.5759012740  SOLV      1393            0.0000000000
      4292      1404  TIP3      H1              3.2698634411       20.2543826706      -31.4950600070  SOLV      1393            0.0000000000
      4293      1404  TIP3      H2              2.8125374723       21.5690982002      -32.1254537977  SOLV      1393            0.0000000000
      4294      1405  TIP3      OH2             4.3719007128       19.0560153400      -30.7055699058  SOLV      1394            0.0000000000
      4295      1405  TIP3      H1              3.5852208459       18.4909415058      -30.5552175494  SOLV      1394            0.0000000000
      4296      1405  TIP3      H2              5.0598009318       18.3613444180      -30.8050979593  SOLV      1394            0.0000000000
      4297      1406  TIP3      OH2             1.8850472082       17.2509475801      -33.4901019368  SOLV      1395            0.0000000000
      4298      1406  TIP3      H1              0.9835761847       17.3147289139      -33.1321290554  SOLV      1395            0.0000000000
      4299      1406  TIP3      H2              1.7863944926       17.7120452570      -34.3302035310  SOLV      1395            0.0000000000
      4300      1407  TIP3      OH2           -11.9124841597       14.3334038722      -25.7391739965  SOLV      1396            0.0000000000
      4301      1407  TIP3      H1            -10.9353481556       14.2595390295      -25.6900394407  SOLV      1396            0.0000000000
      4302      1407  TIP3      H2            -12.1668854272       13.4518561875      -25.4000240242  SOLV      1396            0.0000000000
      4303      1408  TIP3      OH2             6.3755262288       13.0169757542      -28.2397188437  SOLV      1397            0.0000000000
      4304      1408  TIP3      H1              7.0032769641       12.3697137703      -28.6280013006  SOLV      1397            0.0000000000
      4305      1408  TIP3      H2              6.0912245104       13.5226675337      -29.0302126411  SOLV      1397            0.0000000000
      4306      1409  TIP3      OH2           -12.4037674409       11.2945657901      -32.4625761479  SOLV      1398            0.0000000000
      4307      1409  TIP3      H1            -11.8386245607       10.4978357734      -32.3798756461  SOLV      1398            0.0000000000
      4308      1409  TIP3      H2            -11.7296476364       11.9953725356      -32.5095846643  SOLV      1398            0.0000000000
      4309      1410  TIP3      OH2           -14.3438328006       13.9782274560      -31.7723862238  SOLV      1399            0.0000000000
      4310      1410  TIP3      H1            -13.8397135193       13.9806441998      -32.6094546461  SOLV      1399            0.0000000000
      4311      1410  TIP3      H2            -14.1010028602       14.8311654511      -31.3938147443  SOLV      1399            0.0000000000
      4312      1411  TIP3      OH2             5.0614949135       14.3772262200      -30.2099255265  SOLV      1400            0.0000000000
      4313      1411  TIP3      H1              4.2663553653       14.8287728935      -29.8643684481  SOLV      1400            0.0000000000
      4314      1411  TIP3      H2              4.6517249582       13.6665331216      -30.7370962092  SOLV      1400            0.0000000000
      4315      1412  TIP3      OH2           -14.5892269875        9.1092091378      -36.8580108873  SOLV      1401            0.0000000000
      4316      1412  TIP3      H1            -15.3608442207        8.9020193807      -36.3006999507  SOLV      1401            0.0000000000
      4317      1412  TIP3      H2            -15.0058325515        9.6668542088      -37.5270812952  SOLV      1401            0.0000000000
      4318      1413  TIP3      OH2           -12.2628919453        9.8619869633      -28.5746025747  SOLV      1402            0.0000000000
      4319      1413  TIP3      H1            -12.7861083841        9.7619283227      -27.7623802431  SOLV      1402            0.0000000000
      4320      1413  TIP3      H2            -12.9405876941       10.1948851658      -29.1935625415  SOLV      1402            0.0000000000
      4321      1414  TIP3      OH2           -11.8686516210       24.1896971839      -27.7765129156  SOLV      1403            0.0000000000
      4322      1414  TIP3      H1            -12.7760888530       23.8954418715      -27.9828390818  SOLV      1403            0.0000000000
      4323      1414  TIP3      H2            -11.7373330859       23.8121609985      -26.8986004589  SOLV      1403            0.0000000000
      4324      1415  TIP3      OH2           -10.0474590221       24.4958145295      -32.2914277271  SOLV      1404            0.0000000000
      4325      1415  TIP3      H1            -10.5899704578       25.1322726453      -32.7845604263  SOLV      1404            0.0000000000
      4326      1415  TIP3      H2             -9.1695605529       24.6638150433      -32.7039882172  SOLV      1404            0.0000000000
      4327      1416  TIP3      OH2            -5.8156599630       26.7880497298      -30.8218985895  SOLV      1405            0.0000000000
      4328      1416  TIP3      H1             -5.4660527341       26.7394325150      -29.9060995383  SOLV      1405            0.0000000000
      4329      1416  TIP3      H2             -5.0299386662       27.1729465740      -31.2668771088  SOLV      1405            0.0000000000
      4330      1417  TIP3      OH2            -3.7033585000       27.9702749958      -32.0749537495  SOLV      1406            0.0000000000
      4331      1417  TIP3      H1             -2.9376474112       27.3555134190      -32.1017216210  SOLV      1406            0.0000000000
      4332      1417  TIP3      H2             -3.3523275023       28.6570989931      -31.4622815321  SOLV      1406            0.0000000000
      4333      1418  TIP3      OH2             4.0479317033       11.8626662556      -31.2511656455  SOLV      1407            0.0000000000
      4334      1418  TIP3      H1              3.1417651364       11.6260956102      -31.5273484640  SOLV      1407            0.0000000000
      4335      1418  TIP3      H2              4.4704706508       10.9773194554      -31.3298337618  SOLV      1407            0.0000000000
      4336      1419  TIP3      OH2           -13.1350385369       26.7715254652      -32.0090418303  SOLV      1408            0.0000000000
      4337      1419  TIP3      H1            -14.0850447156       26.8650718158      -32.2417876337  SOLV      1408            0.0000000000
      4338      1419  TIP3      H2            -13.0968810097       27.3267255562      -31.2056569421  SOLV      1408            0.0000000000
      4339      1420  TIP3      OH2           -11.2020828079       26.7924163962      -33.8396474309  SOLV      1409            0.0000000000
      4340      1420  TIP3      H1            -11.8692157726       26.9062594972      -33.1231275676  SOLV      1409            0.0000000000
      4341      1420  TIP3      H2            -11.7557190921       26.2849645773      -34.4641587099  SOLV      1409            0.0000000000
      4342      1421  TIP3      OH2           -13.2095357003       24.8619469135      -34.5945504128  SOLV      1410            0.0000000000
      4343      1421  TIP3      H1            -13.4385844198       24.8486507431      -33.6467860408  SOLV      1410            0.0000000000
      4344      1421  TIP3      H2            -13.7282248700       24.0849758679      -34.9009751714  SOLV      1410            0.0000000000
      4345      1422  TIP3      OH2           -11.1008838017       23.2318093653      -36.0892403255  SOLV      1411            0.0000000000
      4346      1422  TIP3      H1            -11.6589380176       22.4999865386      -35.7692826840  SOLV      1411            0.0000000000
      4347      1422  TIP3      H2            -11.2340598819       23.8730730218      -35.3785826080  SOLV      1411            0.0000000000
      4348      1423  TIP3      OH2            -3.8931287904       11.4156467771      -34.9590735826  SOLV      1412            0.0000000000
      4349      1423  TIP3      H1             -4.2542018580       10.6267873413      -34.5133313506  SOLV      1412            0.0000000000
      4350      1423  TIP3      H2             -3.1348869485       11.0129959503      -35.4150946829  SOLV      1412            0.0000000000
      4351      1424  TIP3      OH2           -11.3997032811        8.2225836514      -35.0765686398  SOLV      1413            0.0000000000
      4352      1424  TIP3      H1            -12.3085931187        7.8629471467      -34.9934480605  SOLV      1413            0.0000000000
      4353      1424  TIP3      H2            -10.8867862060        7.3850515801      -35.1137026809  SOLV      1413            0.0000000000
      4354      1425  TIP3      OH2           -13.6641059199        6.8082014891      -38.3655613179  SOLV      1414            0.0000000000
      4355      1425  TIP3      H1            -13.0330033301        7.2451275858      -38.9541685595  SOLV      1414            0.0000000000
      4356      1425  TIP3      H2            -13.9132978042        7.5457405108      -37.7686726281  SOLV      1414            0.0000000000
      4357      1426  TIP3      OH2            -7.3239801928        8.8434238254      -36.2343045913  SOLV      1415            0.0000000000
      4358      1426  TIP3      H1             -6.5928125454        8.8483494663      -36.8683594504  SOLV      1415            0.0000000000
      4359      1426  TIP3      H2             -6.8062520288        8.7147594635      -35.4283342123  SOLV      1415            0.0000000000
      4360      1427  TIP3      OH2            -1.1493299272       10.3758290660      -35.7269113310  SOLV      1416            0.0000000000
      4361      1427  TIP3      H1             -1.0910479625        9.9830897566      -36.6143945152  SOLV      1416            0.0000000000
      4362      1427  TIP3      H2             -1.0809030846        9.5513168046      -35.1944298428  SOLV      1416            0.0000000000
      4363      1428  TIP3      OH2            -9.3024939475       11.0647905224      -26.0940299481  SOLV      1417            0.0000000000
      4364      1428  TIP3      H1             -9.6818996613       10.3453720707      -25.5574005488  SOLV      1417            0.0000000000
      4365      1428  TIP3      H2             -8.3653101150       11.0286329809      -25.7996802383  SOLV      1417            0.0000000000
      4366      1429  TIP3      OH2            -6.7844464033       11.0061338138      -24.9176404923  SOLV      1418            0.0000000000
      4367      1429  TIP3      H1             -5.9357792033       10.7067393627      -25.2847707047  SOLV      1418            0.0000000000
      4368      1429  TIP3      H2             -6.9415389673       10.3267266247      -24.2266428678  SOLV      1418            0.0000000000
      4369      1430  TIP3      OH2             1.4807500877       11.6628118156      -27.0544311545  SOLV      1419            0.0000000000
      4370      1430  TIP3      H1              1.6297038661       11.3547053808      -26.1329171473  SOLV      1419            0.0000000000
      4371      1430  TIP3      H2              2.3890982918       11.6067242905      -27.4214605982  SOLV      1419            0.0000000000
      4372      1431  TIP3      OH2             0.7711914137       27.3428055714      -31.7923959464  SOLV      1420            0.0000000000
      4373      1431  TIP3      H1             -0.0225362827       27.0300032195      -32.2781024729  SOLV      1420            0.0000000000
      4374      1431  TIP3      H2              1.1463911205       27.9717163944      -32.4195303490  SOLV      1420            0.0000000000
      4375      1432  TIP3      OH2             5.4036812435       20.2598093631      -33.3099055493  SOLV      1421            0.0000000000
      4376      1432  TIP3      H1              5.8033222989       20.4669609998      -32.4450738233  SOLV      1421            0.0000000000
      4377      1432  TIP3      H2              5.9046114091       19.4417019184      -33.5345214163  SOLV      1421            0.0000000000
      4378      1433  TIP3      OH2             7.2567967637       15.3991808748      -33.1102137360  SOLV      1422            0.0000000000
      4379      1433  TIP3      H1              6.8122154377       14.9370574567      -33.8351465676  SOLV      1422            0.0000000000
      4380      1433  TIP3      H2              7.9065986080       14.7318294784      -32.8394084237  SOLV      1422            0.0000000000
      4381      1434  TIP3      OH2             5.4409987469       23.2900421671      -30.6443635018  SOLV      1423            0.0000000000
      4382      1434  TIP3      H1              6.1647885566       22.7125947299      -30.9139138409  SOLV      1423            0.0000000000
      4383      1434  TIP3      H2              5.0422327812       23.5044780741      -31.4960839091  SOLV      1423            0.0000000000
      4384      1435  TIP3      OH2             7.4297775506       20.7602090223      -31.3836890272  SOLV      1424            0.0000000000
      4385      1435  TIP3      H1              8.0464386263       20.0210003652      -31.2610881130  SOLV      1424            0.0000000000
      4386      1435  TIP3      H2              7.4534863754       21.1503273097      -30.4817078499  SOLV      1424            0.0000000000
      4387      1436  TIP3      OH2            10.2911991319       18.7363360596      -31.2375475007  SOLV      1425            0.0000000000
      4388      1436  TIP3      H1              9.7682736343       17.9196473114      -31.1032197618  SOLV      1425            0.0000000000
      4389      1436  TIP3      H2             10.7941950562       18.5411632398      -32.0511044141  SOLV      1425            0.0000000000
      4390      1437  TIP3      OH2             8.7707802832       16.4456679148      -30.5943192013  SOLV      1426            0.0000000000
      4391      1437  TIP3      H1              8.6361888217       15.5624941037      -30.9700161366  SOLV      1426            0.0000000000
      4392      1437  TIP3      H2              9.1256164541       16.2326760337      -29.7078989936  SOLV      1426            0.0000000000
      4393      1438  TIP3      OH2            13.5190225598       13.1750153197      -32.3858708134  SOLV      1427            0.0000000000
      4394      1438  TIP3      H1             14.2900208992       12.6144036714      -32.1367020575  SOLV      1427            0.0000000000
      4395      1438  TIP3      H2             13.1337652151       12.6055193966      -33.0605775915  SOLV      1427            0.0000000000
      4396      1439  TIP3      OH2            14.4526210557       15.1988246689      -30.6163148332  SOLV      1428            0.0000000000
      4397      1439  TIP3      H1             14.1490161683       14.5802449041      -31.3054753685  SOLV      1428            0.0000000000
      4398      1439  TIP3      H2             13.6462719051       15.7531317058      -30.4829076711  SOLV      1428            0.0000000000
      4399      1440  TIP3      OH2             6.0231933007       16.9256012646      -30.8495452110  SOLV      1429            0.0000000000
      4400      1440  TIP3      H1              6.9913903501       16.8437313597      -30.9587730691  SOLV      1429            0.0000000000
      4401      1440  TIP3      H2              5.8008824670       16.0146990920      -30.5726579108  SOLV      1429            0.0000000000
      4402      1441  TIP3      OH2             5.2015376307       12.5392556904      -33.8008798306  SOLV      1430            0.0000000000
      4403      1441  TIP3      H1              5.1538242868       12.1636783366      -32.9052212658  SOLV      1430            0.0000000000
      4404      1441  TIP3      H2              4.3960408604       13.0747055166      -33.8095907382  SOLV      1430            0.0000000000
      4405      1442  TIP3      OH2             8.7060457483       13.3636761908      -31.2798267616  SOLV      1431            0.0000000000
      4406      1442  TIP3      H1              8.3253736203       12.7373996416      -30.6315602644  SOLV      1431            0.0000000000
      4407      1442  TIP3      H2              9.6096235498       13.4715885555      -30.9093469553  SOLV      1431            0.0000000000
      4408      1443  TIP3      OH2            11.1572188370       13.5401341596      -30.0245047011  SOLV      1432            0.0000000000
      4409      1443  TIP3      H1             12.0620702888       13.2816442299      -30.2545847680  SOLV      1432            0.0000000000
      4410      1443  TIP3      H2             10.9485302101       12.8791410224      -29.3298076377  SOLV      1432            0.0000000000
      4411      1444  TIP3      OH2           -24.9140790846       27.5181402181      -24.2091240545  SOLV      1433            0.0000000000
      4412      1444  TIP3      H1            -25.4774964829       26.7988039517      -24.5223259582  SOLV      1433            0.0000000000
      4413      1444  TIP3      H2            -25.4925380113       27.9910948789      -23.5680614366  SOLV      1433            0.0000000000
      4414      1445  TIP3      OH2           -15.3743228086       28.4585605528      -26.7957867543  SOLV      1434            0.0000000000
      4415      1445  TIP3      H1            -14.8003504345       27.7081403696      -27.0657844373  SOLV      1434            0.0000000000
      4416      1445  TIP3      H2            -14.8449573166       29.2139626894      -27.0660222784  SOLV      1434            0.0000000000
      4417      1446  TIP3      OH2           -17.2725551494       27.2014466804      -29.8040107831  SOLV      1435            0.0000000000
      4418      1446  TIP3      H1            -17.9830100205       27.0750266704      -30.4518436210  SOLV      1435            0.0000000000
      4419      1446  TIP3      H2            -16.8216366679       26.3234889807      -29.8207469285  SOLV      1435            0.0000000000
      4420      1447  TIP3      OH2           -20.3149415864       27.3426636006      -25.6538702734  SOLV      1436            0.0000000000
      4421      1447  TIP3      H1            -20.1003259700       27.1413393541      -24.7205417130  SOLV      1436            0.0000000000
      4422      1447  TIP3      H2            -19.4174320204       27.3812426765      -26.0472476925  SOLV      1436            0.0000000000
      4423      1448  TIP3      OH2            -6.2365708429       28.0114096368      -33.4349663587  SOLV      1437            0.0000000000
      4424      1448  TIP3      H1             -5.3106221117       27.8759263048      -33.1643191932  SOLV      1437            0.0000000000
      4425      1448  TIP3      H2             -6.7040394735       27.5594517948      -32.7154277444  SOLV      1437            0.0000000000
      4426      1449  TIP3      OH2            -9.2378690204       28.5387348649      -32.9471480970  SOLV      1438            0.0000000000
      4427      1449  TIP3      H1             -9.0041232568       28.9371207491      -33.7995263823  SOLV      1438            0.0000000000
      4428      1449  TIP3      H2             -9.8092443870       27.7946093900      -33.2343410272  SOLV      1438            0.0000000000
      4429      1450  TIP3      OH2            -7.9737427254       28.4975099207      -30.4522284202  SOLV      1439            0.0000000000
      4430      1450  TIP3      H1             -7.3690587628       27.7363501247      -30.5675861450  SOLV      1439            0.0000000000
      4431      1450  TIP3      H2             -8.4522724194       28.5017463350      -31.3100445599  SOLV      1439            0.0000000000
      4432      1451  TIP3      OH2            -6.7030543323       30.5598064908      -29.1902761181  SOLV      1440            0.0000000000
      4433      1451  TIP3      H1             -7.0240469343       29.7779007266      -29.6926270792  SOLV      1440            0.0000000000
      4434      1451  TIP3      H2             -7.5361732372       30.8560041546      -28.7571217423  SOLV      1440            0.0000000000
      4435      1452  TIP3      OH2           -15.7033665995       27.5259877874      -32.2199053400  SOLV      1441            0.0000000000
      4436      1452  TIP3      H1            -16.1913538046       27.6880898659      -31.3955230386  SOLV      1441            0.0000000000
      4437      1452  TIP3      H2            -15.8556504964       28.3362409957      -32.7238131559  SOLV      1441            0.0000000000
      4438      1453  TIP3      OH2           -12.9250062531       28.3071906276      -29.7958687042  SOLV      1442            0.0000000000
      4439      1453  TIP3      H1            -13.2547546152       27.6431189176      -29.1475767484  SOLV      1442            0.0000000000
      4440      1453  TIP3      H2            -11.9707123268       28.3345408184      -29.5388641823  SOLV      1442            0.0000000000
      4441      1454  TIP3      OH2           -10.4842544956       28.8464789523      -28.8108134223  SOLV      1443            0.0000000000
      4442      1454  TIP3      H1             -9.5598473368       28.7480059167      -29.1052804138  SOLV      1443            0.0000000000
      4443      1454  TIP3      H2            -10.4636897357       28.4055647569      -27.9388063598  SOLV      1443            0.0000000000
      4444      1455  TIP3      OH2            -2.5405826797       29.8967530452      -30.4965821836  SOLV      1444            0.0000000000
      4445      1455  TIP3      H1             -2.0756281733       29.6696417215      -29.6614587542  SOLV      1444            0.0000000000
      4446      1455  TIP3      H2             -1.8307019604       30.2988871204      -31.0351584106  SOLV      1444            0.0000000000
      4447      1456  TIP3      OH2           -25.0265073730      -36.7796494856       -0.3342371432  SOLV      1445            0.0000000000
      4448      1456  TIP3      H1            -25.3858638404      -35.9409534535       -0.7065987983  SOLV      1445            0.0000000000
      4449      1456  TIP3      H2            -25.8436229060      -37.2308376045       -0.0912506285  SOLV      1445            0.0000000000
      4450      1457  TIP3      OH2           -22.5387634999      -33.7349501683        0.2527158488  SOLV      1446            0.0000000000
      4451      1457  TIP3      H1            -22.7145916656      -34.3871355612        0.9388454868  SOLV      1446            0.0000000000
      4452      1457  TIP3      H2            -22.2524957936      -32.9585953216        0.7645173841  SOLV      1446            0.0000000000
      4453      1458  TIP3      OH2           -26.1177746400      -29.1541687909        0.3989977080  SOLV      1447            0.0000000000
      4454      1458  TIP3      H1            -25.6697027345      -29.8620209280       -0.1102355761  SOLV      1447            0.0000000000
      4455      1458  TIP3      H2            -26.1849347942      -29.5498883721        1.2761695174  SOLV      1447            0.0000000000
      4456      1459  TIP3      OH2           -26.8646624116      -34.5789482315        3.6958969956  SOLV      1448            0.0000000000
      4457      1459  TIP3      H1            -26.3805876489      -35.1588727759        3.0996355829  SOLV      1448            0.0000000000
      4458      1459  TIP3      H2            -26.1224828751      -34.1170731671        4.1312402424  SOLV      1448            0.0000000000
      4459      1460  TIP3      OH2           -17.0432301923      -41.0329109356        3.6247717147  SOLV      1449            0.0000000000
      4460      1460  TIP3      H1            -16.9696492782      -40.3189854636        4.2871263921  SOLV      1449            0.0000000000
      4461      1460  TIP3      H2            -17.1896403486      -40.5197876943        2.8151084980  SOLV      1449            0.0000000000
      4462      1461  TIP3      OH2           -16.4695749907      -39.1537395587        5.6317553728  SOLV      1450            0.0000000000
      4463      1461  TIP3      H1            -17.3251752449      -38.6779041732        5.5662260609  SOLV      1450            0.0000000000
      4464      1461  TIP3      H2            -15.9949134784      -38.6386677022        6.3062902161  SOLV      1450            0.0000000000
      4465      1462  TIP3      OH2           -26.3137662926      -34.6809555395       -1.5244614738  SOLV      1451            0.0000000000
      4466      1462  TIP3      H1            -26.4421155435      -34.7115590591       -2.4773585225  SOLV      1451            0.0000000000
      4467      1462  TIP3      H2            -26.6594361503      -33.7815311732       -1.3364828042  SOLV      1451            0.0000000000
      4468      1463  TIP3      OH2           -21.9338544998      -31.3171527726        1.8702378660  SOLV      1452            0.0000000000
      4469      1463  TIP3      H1            -22.8270993602      -31.4029276752        2.2766196762  SOLV      1452            0.0000000000
      4470      1463  TIP3      H2            -22.0224263593      -30.4557372443        1.4147548073  SOLV      1452            0.0000000000
      4471      1464  TIP3      OH2           -24.9393269796      -30.8860428479       -1.4095088976  SOLV      1453            0.0000000000
      4472      1464  TIP3      H1            -24.4788321910      -31.7392593319       -1.6021797405  SOLV      1453            0.0000000000
      4473      1464  TIP3      H2            -24.2743383390      -30.2605454001       -1.7845135770  SOLV      1453            0.0000000000
      4474      1465  TIP3      OH2           -23.5961702496      -33.1246810384       -2.2372761007  SOLV      1454            0.0000000000
      4475      1465  TIP3      H1            -23.5336952709      -33.8914960853       -2.8338823449  SOLV      1454            0.0000000000
      4476      1465  TIP3      H2            -23.1791736634      -33.4681397287       -1.4183476013  SOLV      1454            0.0000000000
      4477      1466  TIP3      OH2           -19.6702188744      -32.1936808704        5.3469488223  SOLV      1455            0.0000000000
      4478      1466  TIP3      H1            -19.8002935924      -32.9843137348        4.7778322355  SOLV      1455            0.0000000000
      4479      1466  TIP3      H2            -19.8607250553      -31.4638452047        4.7209357825  SOLV      1455            0.0000000000
      4480      1467  TIP3      OH2           -17.6922043440      -35.7939406883        3.7858494340  SOLV      1456            0.0000000000
      4481      1467  TIP3      H1            -18.5322409883      -35.2845524604        3.8180519431  SOLV      1456            0.0000000000
      4482      1467  TIP3      H2            -17.3890136298      -35.5671767937        2.8786540692  SOLV      1456            0.0000000000
      4483      1468  TIP3      OH2           -23.1844258168      -37.3373493858       -2.3696125352  SOLV      1457            0.0000000000
      4484      1468  TIP3      H1            -23.8096133898      -37.2089847707       -1.6264384820  SOLV      1457            0.0000000000
      4485      1468  TIP3      H2            -22.3928952371      -37.6728070814       -1.9171366638  SOLV      1457            0.0000000000
      4486      1469  TIP3      OH2           -20.7811108513      -36.9047870384        6.7631844812  SOLV      1458            0.0000000000
      4487      1469  TIP3      H1            -20.9724311245      -36.1197658691        7.3010990054  SOLV      1458            0.0000000000
      4488      1469  TIP3      H2            -21.6680040887      -37.2005737626        6.5216916323  SOLV      1458            0.0000000000
      4489      1470  TIP3      OH2           -24.3205096935      -31.3977477515        3.1229868411  SOLV      1459            0.0000000000
      4490      1470  TIP3      H1            -24.4347494061      -30.5622592768        3.6155545344  SOLV      1459            0.0000000000
      4491      1470  TIP3      H2            -24.5283266696      -32.0772696008        3.7863224257  SOLV      1459            0.0000000000
      4492      1471  TIP3      OH2           -27.4070602202      -32.1728435786       -1.4928702381  SOLV      1460            0.0000000000
      4493      1471  TIP3      H1            -26.6602101548      -31.5580866261       -1.3633485450  SOLV      1460            0.0000000000
      4494      1471  TIP3      H2            -28.1824896462      -31.5982422811       -1.5210647633  SOLV      1460            0.0000000000
      4495      1472  TIP3      OH2           -21.3075276178      -32.6103349416       -7.5665156695  SOLV      1461            0.0000000000
      4496      1472  TIP3      H1            -21.2742713855      -31.6930404945       -7.9163678652  SOLV      1461            0.0000000000
      4497      1472  TIP3      H2            -20.4563960316      -32.9825322034       -7.8704865681  SOLV      1461            0.0000000000
      4498      1473  TIP3      OH2           -17.2956529436      -28.7179017339        5.8228362920  SOLV      1462            0.0000000000
      4499      1473  TIP3      H1            -17.3019144672      -29.6844668858        5.9636225497  SOLV      1462            0.0000000000
      4500      1473  TIP3      H2            -18.1314847443      -28.4749556188        6.2828595188  SOLV      1462            0.0000000000
      4501      1474  TIP3      OH2           -26.2433354876      -30.9257857307        7.1253026012  SOLV      1463            0.0000000000
      4502      1474  TIP3      H1            -26.1992850103      -29.9686234700        7.3489403354  SOLV      1463            0.0000000000
      4503      1474  TIP3      H2            -26.9742751377      -31.2047363707        7.6916731882  SOLV      1463            0.0000000000
      4504      1475  TIP3      OH2           -28.7392547719      -29.4827184618       -3.6141348435  SOLV      1464            0.0000000000
      4505      1475  TIP3      H1            -29.6461960945      -29.8291269552       -3.5980167720  SOLV      1464            0.0000000000
      4506      1475  TIP3      H2            -28.8547750253      -28.6468837368       -3.1225805566  SOLV      1464            0.0000000000
      4507      1476  TIP3      OH2           -25.5634579440      -30.5285866706       -6.6962454504  SOLV      1465            0.0000000000
      4508      1476  TIP3      H1            -25.1980018906      -31.4189486681       -6.8175118674  SOLV      1465            0.0000000000
      4509      1476  TIP3      H2            -25.4874307204      -30.4139510512       -5.7268355020  SOLV      1465            0.0000000000
      4510      1477  TIP3      OH2           -26.0745890789      -30.0940271693       -4.0434298902  SOLV      1466            0.0000000000
      4511      1477  TIP3      H1            -27.0304812638      -30.0306181246       -3.8267700072  SOLV      1466            0.0000000000
      4512      1477  TIP3      H2            -25.7068378310      -30.4844985602       -3.2303577878  SOLV      1466            0.0000000000
      4513      1478  TIP3      OH2           -18.4327764774      -37.2803745017        8.7619567822  SOLV      1467            0.0000000000
      4514      1478  TIP3      H1            -19.2981490110      -36.9765848138        8.4434390117  SOLV      1467            0.0000000000
      4515      1478  TIP3      H2            -18.4580788132      -38.2111544181        8.4387779526  SOLV      1467            0.0000000000
      4516      1479  TIP3      OH2           -20.3340697024      -25.2776345974        6.8267389455  SOLV      1468            0.0000000000
      4517      1479  TIP3      H1            -20.3790666170      -25.0308567079        5.8860466374  SOLV      1468            0.0000000000
      4518      1479  TIP3      H2            -19.5559861032      -24.7747860559        7.1315144454  SOLV      1468            0.0000000000
      4519      1480  TIP3      OH2           -20.0199815794      -34.3537376454        3.6768082831  SOLV      1469            0.0000000000
      4520      1480  TIP3      H1            -19.7929635242      -33.8406150391        2.8717597169  SOLV      1469            0.0000000000
      4521      1480  TIP3      H2            -20.8439199677      -34.8167945480        3.4045829358  SOLV      1469            0.0000000000
      4522      1481  TIP3      OH2           -24.7095496929      -33.2851081494        7.3366746386  SOLV      1470            0.0000000000
      4523      1481  TIP3      H1            -25.3156559188      -33.9315924482        7.7429535444  SOLV      1470            0.0000000000
      4524      1481  TIP3      H2            -25.2695453484      -32.4874735986        7.3529527200  SOLV      1470            0.0000000000
      4525      1482  TIP3      OH2           -23.4392075365      -30.7437290766        6.1776869728  SOLV      1471            0.0000000000
      4526      1482  TIP3      H1            -24.3672046079      -30.9082455592        6.4069887346  SOLV      1471            0.0000000000
      4527      1482  TIP3      H2            -23.1207661515      -30.3244412005        7.0064150967  SOLV      1471            0.0000000000
      4528      1483  TIP3      OH2           -17.1575208686      -31.6079593386        6.1987229617  SOLV      1472            0.0000000000
      4529      1483  TIP3      H1            -18.1357347043      -31.6806527010        6.1237681724  SOLV      1472            0.0000000000
      4530      1483  TIP3      H2            -16.8993556149      -31.9407997977        5.3089204444  SOLV      1472            0.0000000000
      4531      1484  TIP3      OH2           -22.6621170211      -32.0310674586       -5.3171526859  SOLV      1473            0.0000000000
      4532      1484  TIP3      H1            -22.7876099639      -32.8454944184       -4.8119268929  SOLV      1473            0.0000000000
      4533      1484  TIP3      H2            -22.2049260265      -32.3617965559       -6.1238148603  SOLV      1473            0.0000000000
      4534      1485  TIP3      OH2           -22.2678745596      -35.7355854786        2.8326960790  SOLV      1474            0.0000000000
      4535      1485  TIP3      H1            -23.2074373724      -35.9100800682        2.9502785746  SOLV      1474            0.0000000000
      4536      1485  TIP3      H2            -21.9819339711      -36.5437560620        2.3546150019  SOLV      1474            0.0000000000
      4537      1486  TIP3      OH2           -28.3257568811      -30.1618744620        4.8409220916  SOLV      1475            0.0000000000
      4538      1486  TIP3      H1            -27.8783927903      -29.3701430868        4.4810542827  SOLV      1475            0.0000000000
      4539      1486  TIP3      H2            -27.7007229927      -30.4630180985        5.5120160386  SOLV      1475            0.0000000000
      4540      1487  TIP3      OH2           -31.0574567992      -30.7732313631       -1.3834624907  SOLV      1476            0.0000000000
      4541      1487  TIP3      H1            -31.9559307391      -31.1270798959       -1.2547582136  SOLV      1476            0.0000000000
      4542      1487  TIP3      H2            -31.1930971065      -29.8270718141       -1.1892699798  SOLV      1476            0.0000000000
      4543      1488  TIP3      OH2           -24.3852423507      -33.8298944295        4.7007495316  SOLV      1477            0.0000000000
      4544      1488  TIP3      H1            -24.4928398467      -33.6983884555        5.6695295160  SOLV      1477            0.0000000000
      4545      1488  TIP3      H2            -23.4369728372      -34.0103261340        4.6519556559  SOLV      1477            0.0000000000
      4546      1489  TIP3      OH2           -22.0418357612      -28.4009739277        5.1830893228  SOLV      1478            0.0000000000
      4547      1489  TIP3      H1            -22.8057558612      -29.0160577656        5.1917852480  SOLV      1478            0.0000000000
      4548      1489  TIP3      H2            -22.2753299518      -27.7988543453        4.4428489404  SOLV      1478            0.0000000000
      4549      1490  TIP3      OH2           -21.4232555046      -29.9810609496       -8.1022684355  SOLV      1479            0.0000000000
      4550      1490  TIP3      H1            -20.9463752735      -29.4624565082       -8.7715664957  SOLV      1479            0.0000000000
      4551      1490  TIP3      H2            -22.1688692404      -29.3732636173       -7.9094166666  SOLV      1479            0.0000000000
      4552      1491  TIP3      OH2           -23.0573754503      -35.2714171521       -4.1615401864  SOLV      1480            0.0000000000
      4553      1491  TIP3      H1            -23.2669859418      -36.0572578222       -3.6103816775  SOLV      1480            0.0000000000
      4554      1491  TIP3      H2            -22.1032413919      -35.4222457499       -4.3218567621  SOLV      1480            0.0000000000
      4555      1492  TIP3      OH2           -18.5510859392      -39.8080386548        7.7332672164  SOLV      1481            0.0000000000
      4556      1492  TIP3      H1            -19.2228996560      -40.4869424562        7.8519832420  SOLV      1481            0.0000000000
      4557      1492  TIP3      H2            -17.8516945057      -40.2922457856        7.2612263456  SOLV      1481            0.0000000000
      4558      1493  TIP3      OH2           -21.6743356662      -38.1539879333        1.6449748534  SOLV      1482            0.0000000000
      4559      1493  TIP3      H1            -22.2966335195      -38.8564582833        1.8589195370  SOLV      1482            0.0000000000
      4560      1493  TIP3      H2            -20.8436288792      -38.5042647694        2.0532444547  SOLV      1482            0.0000000000
      4561      1494  TIP3      OH2           -21.8460243700      -28.6201107516        1.0980568939  SOLV      1483            0.0000000000
      4562      1494  TIP3      H1            -22.2828798854      -28.1396601718        0.3577759264  SOLV      1483            0.0000000000
      4563      1494  TIP3      H2            -20.9039185106      -28.4428570068        0.8791430487  SOLV      1483            0.0000000000
      4564      1495  TIP3      OH2           -29.2473357821      -28.5068478514       11.3979679326  SOLV      1484            0.0000000000
      4565      1495  TIP3      H1            -28.3042854110      -28.6516877469       11.2509456993  SOLV      1484            0.0000000000
      4566      1495  TIP3      H2            -29.6291077399      -29.2437621308       10.8673224822  SOLV      1484            0.0000000000
      4567      1496  TIP3      OH2           -22.8611247152      -29.6093065945        8.5941629555  SOLV      1485            0.0000000000
      4568      1496  TIP3      H1            -22.9810166091      -30.2607480581        9.3224191556  SOLV      1485            0.0000000000
      4569      1496  TIP3      H2            -22.1344915737      -29.0571547631        8.9408554777  SOLV      1485            0.0000000000
      4570      1497  TIP3      OH2           -21.8459152199      -33.4345661031        6.6281858629  SOLV      1486            0.0000000000
      4571      1497  TIP3      H1            -21.2039415582      -32.8080172476        6.2433589990  SOLV      1486            0.0000000000
      4572      1497  TIP3      H2            -22.6381498646      -32.8817621700        6.7478680034  SOLV      1486            0.0000000000
      4573      1498  TIP3      OH2           -22.8355867036      -33.8656114515       10.6131458986  SOLV      1487            0.0000000000
      4574      1498  TIP3      H1            -21.9954548882      -33.8689588746       10.1340969915  SOLV      1487            0.0000000000
      4575      1498  TIP3      H2            -23.0359736601      -34.8207639533       10.6401739904  SOLV      1487            0.0000000000
      4576      1499  TIP3      OH2           -20.8637274830      -37.2516692735       11.0241436059  SOLV      1488            0.0000000000
      4577      1499  TIP3      H1            -20.4604976787      -38.0822996651       11.3026858084  SOLV      1488            0.0000000000
      4578      1499  TIP3      H2            -20.1304314192      -36.6278633192       11.0925266649  SOLV      1488            0.0000000000
      4579      1500  TIP3      OH2           -20.5303835816      -34.6374495096        8.6296484678  SOLV      1489            0.0000000000
      4580      1500  TIP3      H1            -21.1101767741      -34.2042103382        7.9596380016  SOLV      1489            0.0000000000
      4581      1500  TIP3      H2            -19.6544952937      -34.4616531245        8.2171384001  SOLV      1489            0.0000000000
      4582      1501  TIP3      OH2           -19.2714946581      -27.7936371096        0.7340076690  SOLV      1490            0.0000000000
      4583      1501  TIP3      H1            -19.0049829476      -27.4645091993        1.6105453974  SOLV      1490            0.0000000000
      4584      1501  TIP3      H2            -18.6401536705      -27.3589850901        0.1398940002  SOLV      1490            0.0000000000
      4585      1502  TIP3      OH2           -19.0084492645      -27.5397716370        3.5524945293  SOLV      1491            0.0000000000
      4586      1502  TIP3      H1            -19.4961076297      -28.3897888053        3.4883806867  SOLV      1491            0.0000000000
      4587      1502  TIP3      H2            -18.2866810562      -27.8169353784        4.1385075680  SOLV      1491            0.0000000000
      4588      1503  TIP3      OH2           -18.5292289207      -30.7794662121        9.2779959556  SOLV      1492            0.0000000000
      4589      1503  TIP3      H1            -19.2492307914      -30.6663857505        9.9315108856  SOLV      1492            0.0000000000
      4590      1503  TIP3      H2            -18.1098855596      -29.8955057451        9.2995357048  SOLV      1492            0.0000000000
      4591      1504  TIP3      OH2           -20.3640717005      -35.6978447103       -4.5858240261  SOLV      1493            0.0000000000
      4592      1504  TIP3      H1            -19.7364610135      -35.0062005673       -4.8809950232  SOLV      1493            0.0000000000
      4593      1504  TIP3      H2            -19.8915828913      -36.0595785708       -3.8051770337  SOLV      1493            0.0000000000
      4594      1505  TIP3      OH2           -19.0704984770      -36.9912488469       -2.5088872971  SOLV      1494            0.0000000000
      4595      1505  TIP3      H1            -19.7667175060      -37.3708342496       -1.9300365552  SOLV      1494            0.0000000000
      4596      1505  TIP3      H2            -18.4589728267      -36.5789566663       -1.8663321955  SOLV      1494            0.0000000000
      4597      1506  TIP3      OH2           -18.5159203608      -32.9988518998        1.8087140928  SOLV      1495            0.0000000000
      4598      1506  TIP3      H1            -18.0146039046      -33.6948805214        1.3389348307  SOLV      1495            0.0000000000
      4599      1506  TIP3      H2            -18.5337464016      -32.2757223091        1.1490556259  SOLV      1495            0.0000000000
      4600      1507  TIP3      OH2           -20.2850919553      -30.0146428909        3.7329348409  SOLV      1496            0.0000000000
      4601      1507  TIP3      H1            -21.0071542213      -29.5982621409        4.2430229088  SOLV      1496            0.0000000000
      4602      1507  TIP3      H2            -20.7770530419      -30.4671504280        3.0138230266  SOLV      1496            0.0000000000
      4603      1508  TIP3      OH2           -19.5029334633      -37.7844364310       -6.2359245079  SOLV      1497            0.0000000000
      4604      1508  TIP3      H1            -20.1246985597      -37.7962517030       -6.9851846234  SOLV      1497            0.0000000000
      4605      1508  TIP3      H2            -19.9171015428      -37.1271250121       -5.6416774035  SOLV      1497            0.0000000000
      4606      1509  TIP3      OH2           -20.9185107495      -38.3466050685       -0.9709734781  SOLV      1498            0.0000000000
      4607      1509  TIP3      H1            -20.9288965067      -39.3084444036       -0.9351275232  SOLV      1498            0.0000000000
      4608      1509  TIP3      H2            -21.1721254929      -38.1125075610       -0.0515835055  SOLV      1498            0.0000000000
      4609      1510  TIP3      OH2           -18.0895914229      -34.0805830937        7.5273296558  SOLV      1499            0.0000000000
      4610      1510  TIP3      H1            -17.3986164144      -34.7640050569        7.3775038636  SOLV      1499            0.0000000000
      4611      1510  TIP3      H2            -17.8857723243      -33.4258598801        6.8417703864  SOLV      1499            0.0000000000
      4612      1511  TIP3      OH2           -16.2890535130      -36.0786050361        7.5631451003  SOLV      1500            0.0000000000
      4613      1511  TIP3      H1            -17.0231306070      -36.5122999383        8.0509991134  SOLV      1500            0.0000000000
      4614      1511  TIP3      H2            -15.5829848300      -36.7407087916        7.7234098686  SOLV      1500            0.0000000000
      4615      1512  TIP3      OH2           -19.5105647981      -39.2067925148        2.7692256579  SOLV      1501            0.0000000000
      4616      1512  TIP3      H1            -18.6272393046      -39.0557249858        2.3720016549  SOLV      1501            0.0000000000
      4617      1512  TIP3      H2            -19.3321065966      -38.9185939507        3.6886625540  SOLV      1501            0.0000000000
      4618      1513  TIP3      OH2           -18.8342501556      -37.9231177004        5.0817605638  SOLV      1502            0.0000000000
      4619      1513  TIP3      H1            -19.5025873322      -37.5664374610        5.7083802147  SOLV      1502            0.0000000000
      4620      1513  TIP3      H2            -18.4750700642      -37.1039001239        4.6805518549  SOLV      1502            0.0000000000
      4621      1514  TIP3      OH2           -23.4495820462      -29.0269878648       -2.6984457121  SOLV      1503            0.0000000000
      4622      1514  TIP3      H1            -22.9990252220      -29.1455959684       -3.5617631884  SOLV      1503            0.0000000000
      4623      1514  TIP3      H2            -22.9077488557      -28.3364031033       -2.2929882906  SOLV      1503            0.0000000000
      4624      1515  TIP3      OH2           -26.2428023622      -28.2926105110        7.9144960223  SOLV      1504            0.0000000000
      4625      1515  TIP3      H1            -25.8374170567      -28.2644330408        8.8086269531  SOLV      1504            0.0000000000
      4626      1515  TIP3      H2            -25.6173666871      -27.7217310678        7.4173980652  SOLV      1504            0.0000000000
      4627      1516  TIP3      OH2           -24.4650116874      -26.7019955982        6.5894764945  SOLV      1505            0.0000000000
      4628      1516  TIP3      H1            -23.7610251563      -27.2121959337        6.1648914951  SOLV      1505            0.0000000000
      4629      1516  TIP3      H2            -23.9403751556      -26.1334504965        7.1959632660  SOLV      1505            0.0000000000
      4630      1517  TIP3      OH2           -31.2909562816      -28.1429116742        5.3456425199  SOLV      1506            0.0000000000
      4631      1517  TIP3      H1            -32.0072432928      -27.8378462424        5.9387376594  SOLV      1506            0.0000000000
      4632      1517  TIP3      H2            -31.6205935712      -27.8789359985        4.4645088528  SOLV      1506            0.0000000000
      4633      1518  TIP3      OH2           -27.2721286255      -28.0165356034        3.3627117549  SOLV      1507            0.0000000000
      4634      1518  TIP3      H1            -28.0048922672      -27.8581222652        2.7419619007  SOLV      1507            0.0000000000
      4635      1518  TIP3      H2            -27.1751328732      -27.1376931933        3.7848399194  SOLV      1507            0.0000000000
      4636      1519  TIP3      OH2           -24.6186147917      -28.7001037614        3.8837848700  SOLV      1508            0.0000000000
      4637      1519  TIP3      H1            -25.5562081016      -28.4876503351        3.7011943266  SOLV      1508            0.0000000000
      4638      1519  TIP3      H2            -24.1649107865      -27.9506027029        3.4680114956  SOLV      1508            0.0000000000
      4639      1520  TIP3      OH2           -22.5569100783      -26.7740758468        3.0303374926  SOLV      1509            0.0000000000
      4640      1520  TIP3      H1            -22.6997846475      -25.9332223061        2.5484320215  SOLV      1509            0.0000000000
      4641      1520  TIP3      H2            -22.2932598957      -27.3785421303        2.3012451811  SOLV      1509            0.0000000000
      4642      1521  TIP3      OH2           -30.0414673899      -30.1407424035        2.7555680684  SOLV      1510            0.0000000000
      4643      1521  TIP3      H1            -30.0091557067      -31.0360661070        2.4085682375  SOLV      1510            0.0000000000
      4644      1521  TIP3      H2            -29.4868617267      -30.2087384698        3.5659649827  SOLV      1510            0.0000000000
      4645      1522  TIP3      OH2           -22.0339223298      -29.3835498589       -5.0280827055  SOLV      1511            0.0000000000
      4646      1522  TIP3      H1            -22.2160234438      -30.3513092696       -5.0888118229  SOLV      1511            0.0000000000
      4647      1522  TIP3      H2            -22.4401943617      -29.0713004393       -5.8629604062  SOLV      1511            0.0000000000
      4648      1523  TIP3      OH2           -19.7813716511      -27.9787128340        6.8053898136  SOLV      1512            0.0000000000
      4649      1523  TIP3      H1            -20.5583709799      -28.2745384812        6.2850117927  SOLV      1512            0.0000000000
      4650      1523  TIP3      H2            -19.9815973889      -27.0237614039        6.8829369209  SOLV      1512            0.0000000000
      4651      1524  TIP3      OH2            -7.0531549259      -34.3294159661       -5.5279560940  SOLV      1513            0.0000000000
      4652      1524  TIP3      H1             -7.3860003104      -33.4297659132       -5.7181991003  SOLV      1513            0.0000000000
      4653      1524  TIP3      H2             -7.7672208889      -34.8602693405       -5.9453422063  SOLV      1513            0.0000000000
      4654      1525  TIP3      OH2            -6.9884678632      -34.3016444883       -1.7173768464  SOLV      1514            0.0000000000
      4655      1525  TIP3      H1             -6.7179209555      -34.4619573168       -0.7935817065  SOLV      1514            0.0000000000
      4656      1525  TIP3      H2             -7.5602328046      -35.0631339766       -1.8959651309  SOLV      1514            0.0000000000
      4657      1526  TIP3      OH2           -14.1360070067      -35.2783372424        1.9100128992  SOLV      1515            0.0000000000
      4658      1526  TIP3      H1            -13.8331538768      -36.0303612129        2.4582552018  SOLV      1515            0.0000000000
      4659      1526  TIP3      H2            -13.3382914150      -34.7335256611        1.9175783111  SOLV      1515            0.0000000000
      4660      1527  TIP3      OH2            -4.6150108783      -31.1857893860       -4.8754753070  SOLV      1516            0.0000000000
      4661      1527  TIP3      H1             -4.8303034291      -31.8293002267       -4.1879249192  SOLV      1516            0.0000000000
      4662      1527  TIP3      H2             -4.3204889733      -30.4182020587       -4.3546581030  SOLV      1516            0.0000000000
      4663      1528  TIP3      OH2           -14.3593115439      -31.1751309510       -0.8425045886  SOLV      1517            0.0000000000
      4664      1528  TIP3      H1            -14.4465229741      -32.1528932544       -0.8422904960  SOLV      1517            0.0000000000
      4665      1528  TIP3      H2            -13.3933435306      -31.0853607945       -0.9281125601  SOLV      1517            0.0000000000
      4666      1529  TIP3      OH2           -17.4066624907      -39.2637660400       -2.9678805969  SOLV      1518            0.0000000000
      4667      1529  TIP3      H1            -17.7096793493      -38.3487177443       -2.8137494150  SOLV      1518            0.0000000000
      4668      1529  TIP3      H2            -18.2187579865      -39.6418781041       -3.3201322434  SOLV      1518            0.0000000000
      4669      1530  TIP3      OH2           -16.7534768810      -36.2609685480       -1.1972448355  SOLV      1519            0.0000000000
      4670      1530  TIP3      H1            -16.2636083780      -37.0632605729       -0.9019205446  SOLV      1519            0.0000000000
      4671      1530  TIP3      H2            -16.1296319252      -35.8565489549       -1.8145393262  SOLV      1519            0.0000000000
      4672      1531  TIP3      OH2            -8.1077004671      -26.5712596065       -4.7283686236  SOLV      1520            0.0000000000
      4673      1531  TIP3      H1             -7.6956240822      -27.2979882450       -5.2386784480  SOLV      1520            0.0000000000
      4674      1531  TIP3      H2             -8.2783880566      -26.9951222142       -3.8788268970  SOLV      1520            0.0000000000
      4675      1532  TIP3      OH2            -9.1365743595      -31.9479519418       -1.2371531384  SOLV      1521            0.0000000000
      4676      1532  TIP3      H1             -8.7452281167      -32.6818531459       -1.7339295875  SOLV      1521            0.0000000000
      4677      1532  TIP3      H2             -8.3079542918      -31.4997177007       -0.9579501077  SOLV      1521            0.0000000000
      4678      1533  TIP3      OH2             0.8958174713      -38.6789316393       -1.8468301791  SOLV      1522            0.0000000000
      4679      1533  TIP3      H1              0.6622761662      -38.2103135770       -1.0212839724  SOLV      1522            0.0000000000
      4680      1533  TIP3      H2              0.9482122849      -37.8892638574       -2.4397669932  SOLV      1522            0.0000000000
      4681      1534  TIP3      OH2            -4.9931829135      -36.9926446770       -0.8560338839  SOLV      1523            0.0000000000
      4682      1534  TIP3      H1             -4.6070661509      -37.8232242240       -0.5602466036  SOLV      1523            0.0000000000
      4683      1534  TIP3      H2             -5.3613077424      -37.2142588068       -1.7328040765  SOLV      1523            0.0000000000
      4684      1535  TIP3      OH2           -11.7592628066      -40.3676410900       -1.1776350362  SOLV      1524            0.0000000000
      4685      1535  TIP3      H1            -11.8469132293      -39.7065912676       -1.8927386328  SOLV      1524            0.0000000000
      4686      1535  TIP3      H2            -11.8373051542      -41.2016310804       -1.6622917805  SOLV      1524            0.0000000000
      4687      1536  TIP3      OH2            -4.6721045891      -38.9926138175       -4.8909612379  SOLV      1525            0.0000000000
      4688      1536  TIP3      H1             -4.4061335378      -39.8643453102       -4.5508584946  SOLV      1525            0.0000000000
      4689      1536  TIP3      H2             -4.4349757555      -39.0846250061       -5.8285627931  SOLV      1525            0.0000000000
      4690      1537  TIP3      OH2           -15.3679285883      -38.3924631615       -0.2860231068  SOLV      1526            0.0000000000
      4691      1537  TIP3      H1            -14.5608727697      -38.5229001786        0.2694272401  SOLV      1526            0.0000000000
      4692      1537  TIP3      H2            -15.0901157421      -38.9068753940       -1.0703473847  SOLV      1526            0.0000000000
      4693      1538  TIP3      OH2           -10.8696384924      -36.3397733764       -2.2285421546  SOLV      1527            0.0000000000
      4694      1538  TIP3      H1             -9.9463404432      -36.6367921494       -2.0761775632  SOLV      1527            0.0000000000
      4695      1538  TIP3      H2            -11.2988766295      -37.1784665709       -2.5089201122  SOLV      1527            0.0000000000
      4696      1539  TIP3      OH2             1.3471208944      -36.8087280014        0.3810392266  SOLV      1528            0.0000000000
      4697      1539  TIP3      H1              0.5934798778      -36.1923317460        0.2618545666  SOLV      1528            0.0000000000
      4698      1539  TIP3      H2              1.9127536565      -36.3109528487        0.9982514735  SOLV      1528            0.0000000000
      4699      1540  TIP3      OH2            -8.1358425748      -32.0268154153       -6.8804977575  SOLV      1529            0.0000000000
      4700      1540  TIP3      H1             -8.6191932132      -32.1919292817       -7.7030684870  SOLV      1529            0.0000000000
      4701      1540  TIP3      H2             -8.5994359591      -31.2216921083       -6.5620848926  SOLV      1529            0.0000000000
      4702      1541  TIP3      OH2           -10.5574404741      -32.7769743001        0.9922282820  SOLV      1530            0.0000000000
      4703      1541  TIP3      H1            -11.1576311629      -32.0923327549        1.3620841946  SOLV      1530            0.0000000000
      4704      1541  TIP3      H2            -10.1535964624      -32.3009743133        0.2369534174  SOLV      1530            0.0000000000
      4705      1542  TIP3      OH2           -13.0540092863      -39.0246093449        0.8457853489  SOLV      1531            0.0000000000
      4706      1542  TIP3      H1            -12.2863201631      -38.5220591231        1.1716759952  SOLV      1531            0.0000000000
      4707      1542  TIP3      H2            -12.6501065611      -39.6270542863        0.1880735173  SOLV      1531            0.0000000000
      4708      1543  TIP3      OH2           -12.2618546595      -30.8004969512        2.0000037113  SOLV      1532            0.0000000000
      4709      1543  TIP3      H1            -12.5209037268      -29.9294626536        1.6363594340  SOLV      1532            0.0000000000
      4710      1543  TIP3      H2            -13.0612936357      -30.9885703056        2.5380072356  SOLV      1532            0.0000000000
      4711      1544  TIP3      OH2           -18.3719886920      -33.9335477391       -5.5384306317  SOLV      1533            0.0000000000
      4712      1544  TIP3      H1            -18.7542348937      -33.7428437320       -6.4214922087  SOLV      1533            0.0000000000
      4713      1544  TIP3      H2            -18.0855258434      -33.0393351529       -5.2546863180  SOLV      1533            0.0000000000
      4714      1545  TIP3      OH2            -3.9654246049      -28.7523333568       -3.2804415573  SOLV      1534            0.0000000000
      4715      1545  TIP3      H1             -4.8523365268      -28.8420545890       -2.8595307978  SOLV      1534            0.0000000000
      4716      1545  TIP3      H2             -4.0580295500      -27.8804025066       -3.7148792709  SOLV      1534            0.0000000000
      4717      1546  TIP3      OH2            -6.9548480672      -28.3400933013       -6.5399839440  SOLV      1535            0.0000000000
      4718      1546  TIP3      H1             -6.4512657565      -29.1673090399       -6.7137953014  SOLV      1535            0.0000000000
      4719      1546  TIP3      H2             -6.3184745749      -27.6899507285       -6.9194620666  SOLV      1535            0.0000000000
      4720      1547  TIP3      OH2            -5.5000592881      -30.5108531960       -7.4020853422  SOLV      1536            0.0000000000
      4721      1547  TIP3      H1             -6.0680980899      -31.2583985737       -7.6333300765  SOLV      1536            0.0000000000
      4722      1547  TIP3      H2             -5.0934744151      -30.8269632318       -6.5646838906  SOLV      1536            0.0000000000
      4723      1548  TIP3      OH2            -1.7061425482      -29.6742451857        0.2017948148  SOLV      1537            0.0000000000
      4724      1548  TIP3      H1             -1.8417034744      -30.4433194247       -0.3929178178  SOLV      1537            0.0000000000
      4725      1548  TIP3      H2             -1.9064820592      -28.9228780059       -0.3963939166  SOLV      1537            0.0000000000
      4726      1549  TIP3      OH2            -8.7614191393      -35.6875307901       -7.1148147372  SOLV      1538            0.0000000000
      4727      1549  TIP3      H1             -9.5498885547      -35.1784577578       -7.3879825305  SOLV      1538            0.0000000000
      4728      1549  TIP3      H2             -8.3261390477      -35.8830153792       -7.9591879111  SOLV      1538            0.0000000000
      4729      1550  TIP3      OH2            -9.1346470613      -37.8580661717      -10.0366081500  SOLV      1539            0.0000000000
      4730      1550  TIP3      H1             -8.4597468432      -37.3378892530       -9.5614450660  SOLV      1539            0.0000000000
      4731      1550  TIP3      H2             -8.5530142595      -38.4164244841      -10.5930584059  SOLV      1539            0.0000000000
      4732      1551  TIP3      OH2             0.2409257400      -33.2685138630       -1.3683525526  SOLV      1540            0.0000000000
      4733      1551  TIP3      H1             -0.5912814575      -32.7454889842       -1.3457187144  SOLV      1540            0.0000000000
      4734      1551  TIP3      H2              0.5722687151      -33.0185164597       -2.2595547800  SOLV      1540            0.0000000000
      4735      1552  TIP3      OH2            -5.2868101144      -34.8640791411       -7.5536956700  SOLV      1541            0.0000000000
      4736      1552  TIP3      H1             -5.8462466392      -34.6517038490       -6.7716703495  SOLV      1541            0.0000000000
      4737      1552  TIP3      H2             -4.4380262125      -35.0779319308       -7.1155612030  SOLV      1541            0.0000000000
      4738      1553  TIP3      OH2            -3.0413110923      -34.4181182817        1.6603737846  SOLV      1542            0.0000000000
      4739      1553  TIP3      H1             -3.0750985690      -33.6118381164        2.2079294864  SOLV      1542            0.0000000000
      4740      1553  TIP3      H2             -3.9184343289      -34.3854693760        1.2315212254  SOLV      1542            0.0000000000
      4741      1554  TIP3      OH2           -12.9837316984      -34.9273559592       -3.3428371706  SOLV      1543            0.0000000000
      4742      1554  TIP3      H1            -13.3873074300      -35.5094068025       -4.0213524448  SOLV      1543            0.0000000000
      4743      1554  TIP3      H2            -12.2194586782      -35.4610919733       -3.0391480785  SOLV      1543            0.0000000000
      4744      1555  TIP3      OH2           -11.6977073355      -30.7998189620       -1.8725352724  SOLV      1544            0.0000000000
      4745      1555  TIP3      H1            -11.9018630337      -31.1123750963       -2.7683828913  SOLV      1544            0.0000000000
      4746      1555  TIP3      H2            -10.8140428081      -31.1889891494       -1.7094654369  SOLV      1544            0.0000000000
      4747      1556  TIP3      OH2           -11.5804570190      -35.2501611408        0.2538740496  SOLV      1545            0.0000000000
      4748      1556  TIP3      H1            -11.3026015636      -35.4818806375       -0.6564725832  SOLV      1545            0.0000000000
      4749      1556  TIP3      H2            -11.1760966662      -34.3690904069        0.3911407135  SOLV      1545            0.0000000000
      4750      1557  TIP3      OH2            -6.3365276601      -28.8309634987       -2.0072960177  SOLV      1546            0.0000000000
      4751      1557  TIP3      H1             -6.4923756230      -28.0162856929       -1.4961034877  SOLV      1546            0.0000000000
      4752      1557  TIP3      H2             -6.5437799283      -29.5403415089       -1.3689434501  SOLV      1546            0.0000000000
      4753      1558  TIP3      OH2           -10.2265079894      -29.6418629321        3.4495309297  SOLV      1547            0.0000000000
      4754      1558  TIP3      H1            -10.8524214855      -29.0385991113        3.9055994525  SOLV      1547            0.0000000000
      4755      1558  TIP3      H2            -10.8596850550      -30.1756591516        2.9246452035  SOLV      1547            0.0000000000
      4756      1559  TIP3      OH2            -6.9219094667      -36.3751458818       -9.2056492097  SOLV      1548            0.0000000000
      4757      1559  TIP3      H1             -6.3483672641      -35.7380648417       -8.7251356907  SOLV      1548            0.0000000000
      4758      1559  TIP3      H2             -6.6525925714      -36.1876394974      -10.1386582350  SOLV      1548            0.0000000000
      4759      1560  TIP3      OH2           -12.6556837432      -34.1050710352        4.5212100321  SOLV      1549            0.0000000000
      4760      1560  TIP3      H1            -12.6225308250      -33.2093339087        4.9120113083  SOLV      1549            0.0000000000
      4761      1560  TIP3      H2            -13.6056277366      -34.3116748575        4.6442222511  SOLV      1549            0.0000000000
      4762      1561  TIP3      OH2            -9.4242959955      -29.5879496826       -6.5004967769  SOLV      1550            0.0000000000
      4763      1561  TIP3      H1             -8.6278878607      -29.0274544111       -6.4298829163  SOLV      1550            0.0000000000
      4764      1561  TIP3      H2            -10.0613242961      -28.9946446404       -6.9192767893  SOLV      1550            0.0000000000
      4765      1562  TIP3      OH2           -12.3062580294      -28.0017810296        4.3299025123  SOLV      1551            0.0000000000
      4766      1562  TIP3      H1            -12.6531529322      -27.9578977804        3.4176561442  SOLV      1551            0.0000000000
      4767      1562  TIP3      H2            -13.1136875761      -28.2155517082        4.8490306764  SOLV      1551            0.0000000000
      4768      1563  TIP3      OH2           -14.2877835252      -36.4598150361       -5.3551730009  SOLV      1552            0.0000000000
      4769      1563  TIP3      H1            -14.9898226740      -35.9734344992       -5.8430491322  SOLV      1552            0.0000000000
      4770      1563  TIP3      H2            -14.7141318599      -37.3118655499       -5.2164558114  SOLV      1552            0.0000000000
      4771      1564  TIP3      OH2            -3.7475531819      -30.2405844818      -13.3071246657  SOLV      1553            0.0000000000
      4772      1564  TIP3      H1             -3.6652974318      -29.2719729531      -13.4167100310  SOLV      1553            0.0000000000
      4773      1564  TIP3      H2             -2.8220732120      -30.5305719183      -13.4506411506  SOLV      1553            0.0000000000
      4774      1565  TIP3      OH2           -16.5138258665      -32.6355627440        3.7856908504  SOLV      1554            0.0000000000
      4775      1565  TIP3      H1            -17.1972613791      -32.8327037342        3.1109074515  SOLV      1554            0.0000000000
      4776      1565  TIP3      H2            -16.1356113181      -33.5177574081        3.9759959822  SOLV      1554            0.0000000000
      4777      1566  TIP3      OH2           -17.9760814781      -30.7307669486        0.1226191237  SOLV      1555            0.0000000000
      4778      1566  TIP3      H1            -17.0142764866      -30.7315181064        0.0249058790  SOLV      1555            0.0000000000
      4779      1566  TIP3      H2            -18.1194538754      -29.9288836029        0.6480270226  SOLV      1555            0.0000000000
      4780      1567  TIP3      OH2             0.6756000753      -26.1589415785        0.7072387755  SOLV      1556            0.0000000000
      4781      1567  TIP3      H1              0.6565148443      -27.1244647967        0.8484695771  SOLV      1556            0.0000000000
      4782      1567  TIP3      H2             -0.1632117659      -25.9039462228        1.1542736532  SOLV      1556            0.0000000000
      4783      1568  TIP3      OH2            -8.2749217490      -28.3624003037        2.0325503942  SOLV      1557            0.0000000000
      4784      1568  TIP3      H1             -8.3265937082      -27.4357602384        2.3515706520  SOLV      1557            0.0000000000
      4785      1568  TIP3      H2             -8.9975634270      -28.7759454680        2.5567120333  SOLV      1557            0.0000000000
      4786      1569  TIP3      OH2           -10.5839326297      -27.0650075465       -8.4585956790  SOLV      1558            0.0000000000
      4787      1569  TIP3      H1            -11.1012591434      -27.1995717301       -9.2719609403  SOLV      1558            0.0000000000
      4788      1569  TIP3      H2            -10.9466388030      -26.2257249105       -8.1176074417  SOLV      1558            0.0000000000
      4789      1570  TIP3      OH2           -16.2547974740      -28.5905985778       -4.6116622987  SOLV      1559            0.0000000000
      4790      1570  TIP3      H1            -15.8235691102      -28.6951505570       -3.7361960754  SOLV      1559            0.0000000000
      4791      1570  TIP3      H2            -16.8017196258      -29.3939823778       -4.6520294876  SOLV      1559            0.0000000000
      4792      1571  TIP3      OH2            -8.6042841058      -28.0312510871      -12.0777128684  SOLV      1560            0.0000000000
      4793      1571  TIP3      H1             -8.0132693585      -28.7395401352      -12.4118697067  SOLV      1560            0.0000000000
      4794      1571  TIP3      H2             -8.2820017071      -27.9214229839      -11.1569887645  SOLV      1560            0.0000000000
      4795      1572  TIP3      OH2            -8.1045498289      -27.5646034231       -9.4061914285  SOLV      1561            0.0000000000
      4796      1572  TIP3      H1             -9.0017636221      -27.4475543146       -9.0165114618  SOLV      1561            0.0000000000
      4797      1572  TIP3      H2             -7.6216074339      -27.9229090362       -8.6442794933  SOLV      1561            0.0000000000
      4798      1573  TIP3      OH2            -0.4701648760      -34.6710704759        3.7195895021  SOLV      1562            0.0000000000
      4799      1573  TIP3      H1             -1.3152869489      -34.4701272672        3.2906185144  SOLV      1562            0.0000000000
      4800      1573  TIP3      H2             -0.3545627954      -35.6168079429        3.4636568510  SOLV      1562            0.0000000000
      4801      1574  TIP3      OH2           -14.4715207500      -30.8114518494        3.6271431760  SOLV      1563            0.0000000000
      4802      1574  TIP3      H1            -13.9840236654      -30.9933764126        4.4546869768  SOLV      1563            0.0000000000
      4803      1574  TIP3      H2            -15.2210173342      -31.4408123870        3.6948610199  SOLV      1563            0.0000000000
      4804      1575  TIP3      OH2            -2.9361519481      -37.1586957558        2.5180678873  SOLV      1564            0.0000000000
      4805      1575  TIP3      H1             -3.4052909248      -37.3613029844        3.3566027040  SOLV      1564            0.0000000000
      4806      1575  TIP3      H2             -3.2005550068      -36.2401173618        2.3410370551  SOLV      1564            0.0000000000
      4807      1576  TIP3      OH2            -6.1347422798      -35.9170570779      -11.7708998535  SOLV      1565            0.0000000000
      4808      1576  TIP3      H1             -6.4817645420      -36.1641490792      -12.6497783943  SOLV      1565            0.0000000000
      4809      1576  TIP3      H2             -5.3184233420      -35.4462487926      -12.0215345021  SOLV      1565            0.0000000000
      4810      1577  TIP3      OH2           -10.9797583138      -37.4393469838        1.7752655419  SOLV      1566            0.0000000000
      4811      1577  TIP3      H1            -11.5835757599      -37.2611456306        2.5301852545  SOLV      1566            0.0000000000
      4812      1577  TIP3      H2            -11.1608331493      -36.6444001916        1.2234995230  SOLV      1566            0.0000000000
      4813      1578  TIP3      OH2           -12.3133996698      -38.5100611322       -3.1019567961  SOLV      1567            0.0000000000
      4814      1578  TIP3      H1            -13.2273331657      -38.8547775993       -3.0281571668  SOLV      1567            0.0000000000
      4815      1578  TIP3      H2            -12.0608648577      -38.8113218502       -4.0058483280  SOLV      1567            0.0000000000
      4816      1579  TIP3      OH2            -5.5644927834      -34.7363411926        4.7597074220  SOLV      1568            0.0000000000
      4817      1579  TIP3      H1             -5.8791617125      -35.4163352422        5.3990494615  SOLV      1568            0.0000000000
      4818      1579  TIP3      H2             -4.6315647393      -34.6611060103        5.0452569516  SOLV      1568            0.0000000000
      4819      1580  TIP3      OH2            -6.0296469234      -37.2398221104       -3.3679086634  SOLV      1569            0.0000000000
      4820      1580  TIP3      H1             -6.3759333233      -36.5326540964       -3.9409087703  SOLV      1569            0.0000000000
      4821      1580  TIP3      H2             -5.4935947909      -37.7736785010       -4.0040414775  SOLV      1569            0.0000000000
      4822      1581  TIP3      OH2           -12.9074375087      -37.0303243174        3.6775128381  SOLV      1570            0.0000000000
      4823      1581  TIP3      H1            -12.7419463058      -36.3928826977        4.3859274204  SOLV      1570            0.0000000000
      4824      1581  TIP3      H2            -13.0881586022      -37.8509623774        4.1931680858  SOLV      1570            0.0000000000
      4825      1582  TIP3      OH2           -12.2396865010      -42.4515622564       -8.1863157382  SOLV      1571            0.0000000000
      4826      1582  TIP3      H1            -12.5047959798      -42.8909693888       -7.3641656413  SOLV      1571            0.0000000000
      4827      1582  TIP3      H2            -13.0714084169      -42.1013483610       -8.5426524191  SOLV      1571            0.0000000000
      4828      1583  TIP3      OH2            -5.7919141513      -34.9898552202        0.7473022480  SOLV      1572            0.0000000000
      4829      1583  TIP3      H1             -5.4267521521      -35.6811303949        0.1489304699  SOLV      1572            0.0000000000
      4830      1583  TIP3      H2             -6.0560510394      -35.5569521598        1.5035383077  SOLV      1572            0.0000000000
      4831      1584  TIP3      OH2           -14.7568695099      -39.8549084168       -2.5614428576  SOLV      1573            0.0000000000
      4832      1584  TIP3      H1            -15.6991153314      -39.6972233811       -2.8029848418  SOLV      1573            0.0000000000
      4833      1584  TIP3      H2            -14.7716924133      -40.7856053684       -2.2699068844  SOLV      1573            0.0000000000
      4834      1585  TIP3      OH2           -11.6039860527      -39.4997245993       -5.5418232263  SOLV      1574            0.0000000000
      4835      1585  TIP3      H1            -10.9645954602      -39.8539072501       -6.1676344699  SOLV      1574            0.0000000000
      4836      1585  TIP3      H2            -12.3959758121      -39.4554296594       -6.1199140037  SOLV      1574            0.0000000000
      4837      1586  TIP3      OH2           -13.3944432028      -39.3651003055       -7.5869070158  SOLV      1575            0.0000000000
      4838      1586  TIP3      H1            -14.2406354647      -39.5548595406       -8.0284356536  SOLV      1575            0.0000000000
      4839      1586  TIP3      H2            -12.8402404757      -39.0604760762       -8.3368542209  SOLV      1575            0.0000000000
      4840      1587  TIP3      OH2            -2.3734337079      -22.7095848232        1.6839633764  SOLV      1576            0.0000000000
      4841      1587  TIP3      H1             -2.4204596231      -22.4484872125        0.7462619187  SOLV      1576            0.0000000000
      4842      1587  TIP3      H2             -1.5958471491      -22.2058316323        1.9891588483  SOLV      1576            0.0000000000
      4843      1588  TIP3      OH2           -12.8402879425      -31.5899872911        5.8624212197  SOLV      1577            0.0000000000
      4844      1588  TIP3      H1            -12.0443928506      -31.3092749559        6.3558008595  SOLV      1577            0.0000000000
      4845      1588  TIP3      H2            -13.4932150084      -31.6269635182        6.5893349387  SOLV      1577            0.0000000000
      4846      1589  TIP3      OH2            -8.3256164114      -37.1320663394       -1.4997739308  SOLV      1578            0.0000000000
      4847      1589  TIP3      H1             -7.4639744726      -37.4009849655       -1.8471284356  SOLV      1578            0.0000000000
      4848      1589  TIP3      H2             -8.3218905572      -37.5259276048       -0.5982755629  SOLV      1578            0.0000000000
      4849      1590  TIP3      OH2            -8.3443853187      -37.9885018525        1.1588537858  SOLV      1579            0.0000000000
      4850      1590  TIP3      H1             -9.2567253677      -37.7880933974        1.4621879482  SOLV      1579            0.0000000000
      4851      1590  TIP3      H2             -7.8039643729      -37.4881760281        1.7984240915  SOLV      1579            0.0000000000
      4852      1591  TIP3      OH2           -11.0655575197      -34.2153592745       -7.7300668089  SOLV      1580            0.0000000000
      4853      1591  TIP3      H1            -11.7943387623      -34.8596116238       -7.8534955102  SOLV      1580            0.0000000000
      4854      1591  TIP3      H2            -11.2756217625      -33.8712871688       -6.8262759966  SOLV      1580            0.0000000000
      4855      1592  TIP3      OH2            -2.0969732725      -31.8367690972       -1.4790741588  SOLV      1581            0.0000000000
      4856      1592  TIP3      H1             -1.8730827236      -31.3037231123       -2.2709612084  SOLV      1581            0.0000000000
      4857      1592  TIP3      H2             -2.9478020488      -32.2537268094       -1.7411811201  SOLV      1581            0.0000000000
      4858      1593  TIP3      OH2            -6.5031116124      -40.9151113323       -9.5334322966  SOLV      1582            0.0000000000
      4859      1593  TIP3      H1             -7.2428057266      -41.2837316634       -9.0411770917  SOLV      1582            0.0000000000
      4860      1593  TIP3      H2             -6.2095033448      -40.1695471067       -8.9690037319  SOLV      1582            0.0000000000
      4861      1594  TIP3      OH2            -7.1003123462      -30.9946056872        2.2398159658  SOLV      1583            0.0000000000
      4862      1594  TIP3      H1             -6.8000643798      -31.1840569930        3.1368535686  SOLV      1583            0.0000000000
      4863      1594  TIP3      H2             -7.4872857420      -30.1056697806        2.3228879103  SOLV      1583            0.0000000000
      4864      1595  TIP3      OH2            -5.6993572848      -38.6998317207       -8.1238336490  SOLV      1584            0.0000000000
      4865      1595  TIP3      H1             -4.7942782159      -38.3998720488       -7.9412784724  SOLV      1584            0.0000000000
      4866      1595  TIP3      H2             -6.1312504935      -37.8827236337       -8.4424042779  SOLV      1584            0.0000000000
      4867      1596  TIP3      OH2           -14.1349615894      -33.9465607187       -0.9952229783  SOLV      1585            0.0000000000
      4868      1596  TIP3      H1            -13.7546503631      -34.2644510087       -1.8396000036  SOLV      1585            0.0000000000
      4869      1596  TIP3      H2            -13.7373340671      -34.5498452222       -0.3496444516  SOLV      1585            0.0000000000
      4870      1597  TIP3      OH2            -9.6639035663      -32.6836249831       -9.5075338347  SOLV      1586            0.0000000000
      4871      1597  TIP3      H1            -10.1452721969      -31.8224520112       -9.4730720296  SOLV      1586            0.0000000000
      4872      1597  TIP3      H2            -10.1957103032      -33.2253227348       -8.8830205242  SOLV      1586            0.0000000000
      4873      1598  TIP3      OH2           -15.2968934612      -34.7757455597        5.1494954656  SOLV      1587            0.0000000000
      4874      1598  TIP3      H1            -15.1664640840      -34.9228029009        6.1067803385  SOLV      1587            0.0000000000
      4875      1598  TIP3      H2            -16.0008372151      -35.4189461902        4.9529099546  SOLV      1587            0.0000000000
      4876      1599  TIP3      OH2            -8.0600230206      -33.5666314466        5.3325763646  SOLV      1588            0.0000000000
      4877      1599  TIP3      H1             -8.6839231238      -34.2191179730        4.9688476511  SOLV      1588            0.0000000000
      4878      1599  TIP3      H2             -7.2095934084      -33.8760392903        4.9578544983  SOLV      1588            0.0000000000
      4879      1600  TIP3      OH2            -5.5139905545      -28.4212521263        1.2283121523  SOLV      1589            0.0000000000
      4880      1600  TIP3      H1             -6.4781351480      -28.4245055434        1.3655488155  SOLV      1589            0.0000000000
      4881      1600  TIP3      H2             -5.2257440313      -27.8837842037        1.9963838183  SOLV      1589            0.0000000000
      4882      1601  TIP3      OH2            -1.5040795216      -37.6707656687       -9.6869478091  SOLV      1590            0.0000000000
      4883      1601  TIP3      H1             -2.0475431473      -38.1528556922      -10.3552274794  SOLV      1590            0.0000000000
      4884      1601  TIP3      H2             -1.5569385295      -36.7760096541      -10.0935797129  SOLV      1590            0.0000000000
      4885      1602  TIP3      OH2             0.7973751660      -29.0543428559        1.0740887532  SOLV      1591            0.0000000000
      4886      1602  TIP3      H1             -0.1797736044      -29.1233398503        0.9894304155  SOLV      1591            0.0000000000
      4887      1602  TIP3      H2              1.0618685787      -29.3713192188        0.1800803137  SOLV      1591            0.0000000000
      4888      1603  TIP3      OH2            -4.3390777167      -29.4856146187      -10.5983036024  SOLV      1592            0.0000000000
      4889      1603  TIP3      H1             -4.6913770906      -30.1004348859       -9.9365742062  SOLV      1592            0.0000000000
      4890      1603  TIP3      H2             -4.2872763115      -30.0287171488      -11.4017479521  SOLV      1592            0.0000000000
      4891      1604  TIP3      OH2            -4.4392135136      -33.1681767338       -2.3160900864  SOLV      1593            0.0000000000
      4892      1604  TIP3      H1             -5.3698540661      -33.4230775746       -2.1513793872  SOLV      1593            0.0000000000
      4893      1604  TIP3      H2             -4.1213959130      -33.9595795504       -2.7916451589  SOLV      1593            0.0000000000
      4894      1605  TIP3      OH2           -13.1328341170      -30.8980167107       -4.7204900913  SOLV      1594            0.0000000000
      4895      1605  TIP3      H1            -13.2101957702      -30.0867064948       -5.2638263051  SOLV      1594            0.0000000000
      4896      1605  TIP3      H2            -14.0619517519      -31.1078611577       -4.5701917722  SOLV      1594            0.0000000000
      4897      1606  TIP3      OH2           -17.0589923262      -38.0189000448       -7.5451925315  SOLV      1595            0.0000000000
      4898      1606  TIP3      H1            -16.7762293084      -37.0919414402       -7.4289492207  SOLV      1595            0.0000000000
      4899      1606  TIP3      H2            -17.8967980431      -38.0042079265       -7.0328629216  SOLV      1595            0.0000000000
      4900      1607  TIP3      OH2           -11.8482011437      -33.2820637700       -5.3293812327  SOLV      1596            0.0000000000
      4901      1607  TIP3      H1            -12.1814824257      -32.3854349435       -5.1235784053  SOLV      1596            0.0000000000
      4902      1607  TIP3      H2            -12.1910079377      -33.7937962709       -4.5731753851  SOLV      1596            0.0000000000
      4903      1608  TIP3      OH2           -10.4355841303      -27.4915200152       -0.0499575425  SOLV      1597            0.0000000000
      4904      1608  TIP3      H1            -10.0180624055      -26.7631790333       -0.5562383164  SOLV      1597            0.0000000000
      4905      1608  TIP3      H2             -9.6669467984      -27.8672067559        0.4071253152  SOLV      1597            0.0000000000
      4906      1609  TIP3      OH2           -13.9457439202      -28.5659258894       -6.1967829535  SOLV      1598            0.0000000000
      4907      1609  TIP3      H1            -14.8069616258      -28.4377757517       -5.7479403864  SOLV      1598            0.0000000000
      4908      1609  TIP3      H2            -13.5901398709      -27.6476585490       -6.1717930378  SOLV      1598            0.0000000000
      4909      1610  TIP3      OH2            -6.6225857500      -31.1842481828       -0.4287908071  SOLV      1599            0.0000000000
      4910      1610  TIP3      H1             -6.7393623314      -31.1654980040        0.5492333809  SOLV      1599            0.0000000000
      4911      1610  TIP3      H2             -5.7864184972      -31.6616715087       -0.5086183892  SOLV      1599            0.0000000000
      4912      1611  TIP3      OH2            -6.8080452420      -32.1779219411      -11.6106127704  SOLV      1600            0.0000000000
      4913      1611  TIP3      H1             -6.2571190222      -32.4634614354      -10.8419532480  SOLV      1600            0.0000000000
      4914      1611  TIP3      H2             -7.6849542797      -32.4612370215      -11.3078418530  SOLV      1600            0.0000000000
      4915      1612  TIP3      OH2            -4.1002341646      -25.8585137626        0.0315419857  SOLV      1601            0.0000000000
      4916      1612  TIP3      H1             -4.9176788714      -26.3919482152       -0.0206454247  SOLV      1601            0.0000000000
      4917      1612  TIP3      H2             -4.2617116096      -25.2042712701       -0.6845920544  SOLV      1601            0.0000000000
      4918      1613  TIP3      OH2            -3.4069055544      -27.4329950605      -13.5183242358  SOLV      1602            0.0000000000
      4919      1613  TIP3      H1             -3.0082997067      -26.5703156531      -13.7489822826  SOLV      1602            0.0000000000
      4920      1613  TIP3      H2             -4.2461714448      -27.1049704858      -13.1309140813  SOLV      1602            0.0000000000
      4921      1614  TIP3      OH2           -13.2886252459      -39.2145949368        5.3024726570  SOLV      1603            0.0000000000
      4922      1614  TIP3      H1            -14.0555503104      -39.7716721899        5.0789137774  SOLV      1603            0.0000000000
      4923      1614  TIP3      H2            -12.8205325146      -39.7960840990        5.9232325116  SOLV      1603            0.0000000000
      4924      1615  TIP3      OH2            -5.1753003585      -32.9379919118       -9.5508103662  SOLV      1604            0.0000000000
      4925      1615  TIP3      H1             -5.3102248538      -33.5489394023       -8.7992026523  SOLV      1604            0.0000000000
      4926      1615  TIP3      H2             -4.1980323703      -32.9494340674       -9.6088262391  SOLV      1604            0.0000000000
      4927      1616  TIP3      OH2           -16.0538900701      -28.8904459292        1.5266826154  SOLV      1605            0.0000000000
      4928      1616  TIP3      H1            -15.5217517674      -29.6178721193        1.8885714219  SOLV      1605            0.0000000000
      4929      1616  TIP3      H2            -15.8008699807      -28.1630898065        2.1080054329  SOLV      1605            0.0000000000
      4930      1617  TIP3      OH2           -13.0888244806      -32.5058494381      -11.6378218262  SOLV      1606            0.0000000000
      4931      1617  TIP3      H1            -12.9363563048      -33.4613065335      -11.8007837640  SOLV      1606            0.0000000000
      4932      1617  TIP3      H2            -13.3143646472      -32.5171542791      -10.6832126034  SOLV      1606            0.0000000000
      4933      1618  TIP3      OH2           -13.6560075912      -32.3461277246       -8.9636502298  SOLV      1607            0.0000000000
      4934      1618  TIP3      H1            -13.0357587711      -32.6383166985       -8.2833783358  SOLV      1607            0.0000000000
      4935      1618  TIP3      H2            -13.6561792714      -31.3710188840       -8.8281413822  SOLV      1607            0.0000000000
      4936      1619  TIP3      OH2           -16.3445965959      -35.3460413014       -6.8041571313  SOLV      1608            0.0000000000
      4937      1619  TIP3      H1            -17.0465231035      -34.9473382713       -6.2450643947  SOLV      1608            0.0000000000
      4938      1619  TIP3      H2            -16.2718961393      -34.6639480538       -7.4986793566  SOLV      1608            0.0000000000
      4939      1620  TIP3      OH2           -11.0248999018      -30.3516146128       -9.4246400753  SOLV      1609            0.0000000000
      4940      1620  TIP3      H1            -11.9125655607      -30.1945641062       -9.0469168529  SOLV      1609            0.0000000000
      4941      1620  TIP3      H2            -10.9149867999      -29.5307397120       -9.9312800629  SOLV      1609            0.0000000000
      4942      1621  TIP3      OH2            -6.3443794328      -36.6728650641        2.8384586419  SOLV      1610            0.0000000000
      4943      1621  TIP3      H1             -6.2242658219      -36.0041745417        3.5419774042  SOLV      1610            0.0000000000
      4944      1621  TIP3      H2             -5.8460209443      -37.4199468814        3.2033796762  SOLV      1610            0.0000000000
      4945      1622  TIP3      OH2           -13.5789503408      -29.6730735812       -8.6822491095  SOLV      1611            0.0000000000
      4946      1622  TIP3      H1            -13.8646369815      -28.9639200663       -9.3041388732  SOLV      1611            0.0000000000
      4947      1622  TIP3      H2            -13.7669481001      -29.2518700775       -7.8132254055  SOLV      1611            0.0000000000
      4948      1623  TIP3      OH2            -0.2256183218      -37.1975127101        2.8026198748  SOLV      1612            0.0000000000
      4949      1623  TIP3      H1             -1.1792794811      -37.3621254742        2.6239856955  SOLV      1612            0.0000000000
      4950      1623  TIP3      H2              0.2054993126      -37.5436593887        2.0059250733  SOLV      1612            0.0000000000
      4951      1624  TIP3      OH2            -3.6272744828      -35.6116035526       -3.5235376066  SOLV      1613            0.0000000000
      4952      1624  TIP3      H1             -4.3447666924      -36.1352688080       -3.1388644950  SOLV      1613            0.0000000000
      4953      1624  TIP3      H2             -2.8453335354      -36.0084956119       -3.0732589402  SOLV      1613            0.0000000000
      4954      1625  TIP3      OH2           -16.4138787493      -33.3204807495       -8.8399660593  SOLV      1614            0.0000000000
      4955      1625  TIP3      H1            -15.7707737369      -32.5938466889       -8.7981265289  SOLV      1614            0.0000000000
      4956      1625  TIP3      H2            -15.9266767836      -33.9357376863       -9.4405427379  SOLV      1614            0.0000000000
      4957      1626  TIP3      OH2            -3.8740631938      -26.0558423151       -4.0321369758  SOLV      1615            0.0000000000
      4958      1626  TIP3      H1             -4.3086922693      -25.5898195962       -4.7829176411  SOLV      1615            0.0000000000
      4959      1626  TIP3      H2             -2.9314674628      -25.8762402469       -4.2461440014  SOLV      1615            0.0000000000
      4960      1627  TIP3      OH2           -17.7781990541      -31.2569570183       -4.9753499936  SOLV      1616            0.0000000000
      4961      1627  TIP3      H1            -18.3852352905      -30.9359514677       -4.2944495905  SOLV      1616            0.0000000000
      4962      1627  TIP3      H2            -18.1392999454      -30.8000694685       -5.7774430914  SOLV      1616            0.0000000000
      4963      1628  TIP3      OH2           -16.1516985425      -25.7153660752        5.7542532712  SOLV      1617            0.0000000000
      4964      1628  TIP3      H1            -15.2820090110      -25.7417832464        6.2043587843  SOLV      1617            0.0000000000
      4965      1628  TIP3      H2            -16.3848798372      -26.6599715857        5.7504623602  SOLV      1617            0.0000000000
      4966      1629  TIP3      OH2           -11.3845768367      -26.1509797170        6.1642478821  SOLV      1618            0.0000000000
      4967      1629  TIP3      H1            -10.4482568643      -26.3793270480        6.2526042814  SOLV      1618            0.0000000000
      4968      1629  TIP3      H2            -11.6629952246      -26.8008758797        5.4851993837  SOLV      1618            0.0000000000
      4969      1630  TIP3      OH2           -11.5592581670      -30.4212289530      -12.5104901117  SOLV      1619            0.0000000000
      4970      1630  TIP3      H1            -12.1164181394      -31.1402211377      -12.1262976075  SOLV      1619            0.0000000000
      4971      1630  TIP3      H2            -10.7839449562      -30.9317103615      -12.7902744663  SOLV      1619            0.0000000000
      4972      1631  TIP3      OH2            -4.9756362285      -27.0679903004        3.5653371125  SOLV      1620            0.0000000000
      4973      1631  TIP3      H1             -5.0444191360      -27.7591720820        4.2645825608  SOLV      1620            0.0000000000
      4974      1631  TIP3      H2             -4.2128990552      -26.5421621775        3.8732305924  SOLV      1620            0.0000000000
      4975      1632  TIP3      OH2            -7.1434872201      -30.0178820741      -13.3422249891  SOLV      1621            0.0000000000
      4976      1632  TIP3      H1             -6.7965329710      -30.6988279724      -12.7297292547  SOLV      1621            0.0000000000
      4977      1632  TIP3      H2             -6.5613875057      -30.1049421063      -14.1188753014  SOLV      1621            0.0000000000
      4978      1633  TIP3      OH2           -14.8673263381      -31.7029199985        7.7717961203  SOLV      1622            0.0000000000
      4979      1633  TIP3      H1            -14.7435071053      -32.6626408014        7.8857513500  SOLV      1622            0.0000000000
      4980      1633  TIP3      H2            -15.7345014057      -31.6708724189        7.3102071672  SOLV      1622            0.0000000000
      4981      1634  TIP3      OH2           -14.8958053816      -35.1002686894      -10.1610831880  SOLV      1623            0.0000000000
      4982      1634  TIP3      H1            -14.3579005083      -35.4333990550       -9.4222830610  SOLV      1623            0.0000000000
      4983      1634  TIP3      H2            -14.2606771974      -35.1474374328      -10.8998557873  SOLV      1623            0.0000000000
      4984      1635  TIP3      OH2            -8.8042392252      -30.8173668501        5.5274112363  SOLV      1624            0.0000000000
      4985      1635  TIP3      H1             -9.2242695509      -30.6149439571        4.6663276747  SOLV      1624            0.0000000000
      4986      1635  TIP3      H2             -8.5107719716      -31.7463337076        5.4119050722  SOLV      1624            0.0000000000
      4987      1636  TIP3      OH2            -9.8609189970      -33.2436353102      -12.1758208551  SOLV      1625            0.0000000000
      4988      1636  TIP3      H1             -9.9213938795      -33.0813137163      -11.2120958331  SOLV      1625            0.0000000000
      4989      1636  TIP3      H2             -9.7946213863      -34.2264055518      -12.1818695243  SOLV      1625            0.0000000000
      4990      1637  TIP3      OH2            -3.8849738970      -30.7245016465        1.5953180602  SOLV      1626            0.0000000000
      4991      1637  TIP3      H1             -3.1203315031      -30.2964485941        1.1651336984  SOLV      1626            0.0000000000
      4992      1637  TIP3      H2             -4.5762555045      -30.0486344625        1.4466225989  SOLV      1626            0.0000000000
      4993      1638  TIP3      OH2           -13.5969152509      -34.3608146136        7.6184114561  SOLV      1627            0.0000000000
      4994      1638  TIP3      H1            -12.7710632584      -34.7494461860        7.3030459407  SOLV      1627            0.0000000000
      4995      1638  TIP3      H2            -13.3265727490      -33.9996725248        8.4885830629  SOLV      1627            0.0000000000
      4996      1639  TIP3      OH2           -13.0488859725      -36.1435712643       -8.0934296585  SOLV      1628            0.0000000000
      4997      1639  TIP3      H1            -13.3281483700      -36.4795867084       -7.2237166510  SOLV      1628            0.0000000000
      4998      1639  TIP3      H2            -12.6404170007      -36.9339497999       -8.5004667357  SOLV      1628            0.0000000000
      4999      1640  TIP3      OH2           -10.2353590638      -35.4619343948        4.2698035995  SOLV      1629            0.0000000000
      5000      1640  TIP3      H1            -11.0667184874      -34.9421097425        4.2231785066  SOLV      1629            0.0000000000
      5001      1640  TIP3      H2             -9.7630613562      -35.1639610175        3.4586324104  SOLV      1629            0.0000000000
      5002      1641  TIP3      OH2           -11.8324777049      -38.2235638978       -9.5543120832  SOLV      1630            0.0000000000
      5003      1641  TIP3      H1            -11.9647106881      -37.9849076502      -10.4955243665  SOLV      1630            0.0000000000
      5004      1641  TIP3      H2            -10.8501333029      -38.2507468377       -9.5404622058  SOLV      1630            0.0000000000
      5005      1642  TIP3      OH2            -5.1127206631      -31.4759140710        5.5594936138  SOLV      1631            0.0000000000
      5006      1642  TIP3      H1             -4.4174056738      -31.9066029785        5.0462933849  SOLV      1631            0.0000000000
      5007      1642  TIP3      H2             -5.2494360306      -32.1167513921        6.2820861617  SOLV      1631            0.0000000000
      5008      1643  TIP3      OH2            -3.7930341999      -34.9558641026      -12.9855648272  SOLV      1632            0.0000000000
      5009      1643  TIP3      H1             -3.9950641982      -35.3775007517      -13.8462788792  SOLV      1632            0.0000000000
      5010      1643  TIP3      H2             -4.1430928931      -34.0536483626      -13.1756485757  SOLV      1632            0.0000000000
      5011      1644  TIP3      OH2            -9.1908795672      -37.5397329538        5.6289354575  SOLV      1633            0.0000000000
      5012      1644  TIP3      H1             -9.3094500855      -38.3972843015        5.1999816894  SOLV      1633            0.0000000000
      5013      1644  TIP3      H2             -9.6139872868      -36.9163819269        4.9939550651  SOLV      1633            0.0000000000
      5014      1645  TIP3      OH2            -8.7827305622      -34.4494406313        2.2470020674  SOLV      1634            0.0000000000
      5015      1645  TIP3      H1             -7.9381246677      -34.2175005197        1.8411955809  SOLV      1634            0.0000000000
      5016      1645  TIP3      H2             -9.3970390660      -33.8177492441        1.8147951011  SOLV      1634            0.0000000000
      5017      1646  TIP3      OH2            -3.0712665874      -34.7330430554        6.0193781463  SOLV      1635            0.0000000000
      5018      1646  TIP3      H1             -2.7081649236      -35.4190541735        6.6276658480  SOLV      1635            0.0000000000
      5019      1646  TIP3      H2             -2.2663183861      -34.3153075944        5.6873554372  SOLV      1635            0.0000000000
      5020      1647  TIP3      OH2            -2.5762362040      -32.2025180402        3.4360539995  SOLV      1636            0.0000000000
      5021      1647  TIP3      H1             -3.1683477623      -31.6497707186        2.8721104429  SOLV      1636            0.0000000000
      5022      1647  TIP3      H2             -1.7055772140      -31.9511859027        3.0534876544  SOLV      1636            0.0000000000
      5023      1648  TIP3      OH2           -10.4764162426      -36.2518273685        7.8101512436  SOLV      1637            0.0000000000
      5024      1648  TIP3      H1            -11.1853364953      -36.9185754239        7.8820973894  SOLV      1637            0.0000000000
      5025      1648  TIP3      H2            -10.0270915066      -36.5421763218        6.9920123923  SOLV      1637            0.0000000000
      5026      1649  TIP3      OH2            -6.5697807084      -36.7908532354        6.1518513045  SOLV      1638            0.0000000000
      5027      1649  TIP3      H1             -6.3599828121      -37.3889254026        6.9004148147  SOLV      1638            0.0000000000
      5028      1649  TIP3      H2             -7.5190964285      -37.0092716777        6.0245870533  SOLV      1638            0.0000000000
      5029      1650  TIP3      OH2            -4.0767977257      -37.7116190612        5.0039706182  SOLV      1639            0.0000000000
      5030      1650  TIP3      H1             -4.8125148840      -37.5036330873        5.6066144068  SOLV      1639            0.0000000000
      5031      1650  TIP3      H2             -3.4516868216      -38.1553420775        5.5988235656  SOLV      1639            0.0000000000
      5032      1651  TIP3      OH2           -12.0701314143      -38.4532939024        8.3449833087  SOLV      1640            0.0000000000
      5033      1651  TIP3      H1            -11.8433116819      -39.2826719459        7.8819306624  SOLV      1640            0.0000000000
      5034      1651  TIP3      H2            -11.4723860024      -38.4988737784        9.1040058362  SOLV      1640            0.0000000000
      5035      1652  TIP3      OH2           -13.9708957338      -27.8179395631      -10.6654010436  SOLV      1641            0.0000000000
      5036      1652  TIP3      H1            -13.0331664814      -27.7250153945      -10.9093539038  SOLV      1641            0.0000000000
      5037      1652  TIP3      H2            -14.3675911177      -27.1691312366      -11.2743429526  SOLV      1641            0.0000000000
      5038      1653  TIP3      OH2           -18.9853867349      -33.8455461144       -8.2233861290  SOLV      1642            0.0000000000
      5039      1653  TIP3      H1            -18.0595384770      -33.6518548392       -8.4894616915  SOLV      1642            0.0000000000
      5040      1653  TIP3      H2            -19.2695118400      -34.4745493044       -8.9032193165  SOLV      1642            0.0000000000
      5041      1654  TIP3      OH2           -19.9687662927      -27.6686840412       -4.2437047634  SOLV      1643            0.0000000000
      5042      1654  TIP3      H1            -20.5987648852      -28.2647682017       -4.7028656643  SOLV      1643            0.0000000000
      5043      1654  TIP3      H2            -19.5261757488      -28.3006716201       -3.6405418878  SOLV      1643            0.0000000000
      5044      1655  TIP3      OH2           -18.5895271749      -29.2587186980       -2.4350614212  SOLV      1644            0.0000000000
      5045      1655  TIP3      H1            -18.7535138664      -29.9317097014       -1.7542227986  SOLV      1644            0.0000000000
      5046      1655  TIP3      H2            -18.0787551034      -28.6076481794       -1.9219123413  SOLV      1644            0.0000000000
      5047      1656  TIP3      OH2            -1.2954612090      -25.2387361142       -4.3951308578  SOLV      1645            0.0000000000
      5048      1656  TIP3      H1             -1.0809922242      -24.8931810027       -3.5087816072  SOLV      1645            0.0000000000
      5049      1656  TIP3      H2             -0.7111096079      -24.7188626241       -4.9658024607  SOLV      1645            0.0000000000
      5050      1657  TIP3      OH2            -1.0765455978      -24.9852160413       -1.5882777845  SOLV      1646            0.0000000000
      5051      1657  TIP3      H1             -1.5276181691      -25.8559164717       -1.6280417075  SOLV      1646            0.0000000000
      5052      1657  TIP3      H2             -0.3261546803      -25.2164615840       -1.0198483689  SOLV      1646            0.0000000000
      5053      1658  TIP3      OH2            -0.5730963461      -28.2199528280        4.1659080960  SOLV      1647            0.0000000000
      5054      1658  TIP3      H1             -1.3013217404      -28.1040369169        4.8101802170  SOLV      1647            0.0000000000
      5055      1658  TIP3      H2             -0.1571253952      -27.3339844094        4.1836742050  SOLV      1647            0.0000000000
      5056      1659  TIP3      OH2            -2.3880711085      -33.0893219370       -9.6929651103  SOLV      1648            0.0000000000
      5057      1659  TIP3      H1             -1.7394159167      -32.4188341771       -9.9831154809  SOLV      1648            0.0000000000
      5058      1659  TIP3      H2             -1.9440233383      -33.4541044580       -8.8951235778  SOLV      1648            0.0000000000
      5059      1660  TIP3      OH2            -1.1330981503      -34.4205387085       -7.6436863652  SOLV      1649            0.0000000000
      5060      1660  TIP3      H1             -1.8060509084      -34.8105148027       -7.0440154636  SOLV      1649            0.0000000000
      5061      1660  TIP3      H2             -0.4807635761      -34.0370323140       -7.0206609416  SOLV      1649            0.0000000000
      5062      1661  TIP3      OH2            -0.5547735798      -30.4389468402       -3.3148035508  SOLV      1650            0.0000000000
      5063      1661  TIP3      H1             -0.0531851576      -31.1310490512       -3.7893686063  SOLV      1650            0.0000000000
      5064      1661  TIP3      H2             -0.5950489761      -29.7203425846       -3.9765280749  SOLV      1650            0.0000000000
      5065      1662  TIP3      OH2            -2.3258295321      -27.4746710144       -1.3837230886  SOLV      1651            0.0000000000
      5066      1662  TIP3      H1             -3.0464026297      -27.0398670368       -0.8855461177  SOLV      1651            0.0000000000
      5067      1662  TIP3      H2             -2.8157167730      -27.9112793582       -2.1134816934  SOLV      1651            0.0000000000
      5068      1663  TIP3      OH2            -1.8013014840      -35.3403231277      -11.1787718160  SOLV      1652            0.0000000000
      5069      1663  TIP3      H1             -2.5012576633      -35.2800171718      -11.8693524327  SOLV      1652            0.0000000000
      5070      1663  TIP3      H2             -2.0675332974      -34.5798134575      -10.6190069027  SOLV      1652            0.0000000000
      5071      1664  TIP3      OH2            -3.0676871544      -38.7361253930      -11.6548288288  SOLV      1653            0.0000000000
      5072      1664  TIP3      H1             -3.3886333459      -38.0530530075      -12.2577925175  SOLV      1653            0.0000000000
      5073      1664  TIP3      H2             -3.5122175371      -39.5075419874      -12.0308534632  SOLV      1653            0.0000000000
      5074      1665  TIP3      OH2            -3.0326990971      -35.8174863538       -6.2013452022  SOLV      1654            0.0000000000
      5075      1665  TIP3      H1             -3.0279258889      -36.7836675717       -6.3087180122  SOLV      1654            0.0000000000
      5076      1665  TIP3      H2             -3.2161699326      -35.7127960440       -5.2402798238  SOLV      1654            0.0000000000
      5077      1666  TIP3      OH2           -16.7800879218      -35.0945255297        1.3042936533  SOLV      1655            0.0000000000
      5078      1666  TIP3      H1            -16.8094017376      -35.4421278468        0.3877115960  SOLV      1655            0.0000000000
      5079      1666  TIP3      H2            -15.8060396056      -35.0852691035        1.4617942883  SOLV      1655            0.0000000000
      5080      1667  TIP3      OH2            -0.1300075093      -31.5135702562        2.3804323258  SOLV      1656            0.0000000000
      5081      1667  TIP3      H1              0.5730683118      -32.1876906290        2.2454439048  SOLV      1656            0.0000000000
      5082      1667  TIP3      H2              0.1007218738      -30.8397579472        1.7210563612  SOLV      1656            0.0000000000
      5083      1668  TIP3      OH2             1.6631183399      -33.5175742607        2.4314823235  SOLV      1657            0.0000000000
      5084      1668  TIP3      H1              0.9430299270      -33.9328773933        2.9515592209  SOLV      1657            0.0000000000
      5085      1668  TIP3      H2              2.3626783212      -34.1941116749        2.5615104368  SOLV      1657            0.0000000000
      5086      1669  TIP3      OH2            -2.9403264149      -38.6450623767       -7.3228672097  SOLV      1658            0.0000000000
      5087      1669  TIP3      H1             -2.8355031624      -39.6082438231       -7.3726994217  SOLV      1658            0.0000000000
      5088      1669  TIP3      H2             -2.3777395421      -38.3419571398       -8.0631424348  SOLV      1658            0.0000000000
      5089      1670  TIP3      OH2            -1.5127039922      -36.7146030595       -2.2785860238  SOLV      1659            0.0000000000
      5090      1670  TIP3      H1             -0.6514415866      -36.5026262233       -2.6908604594  SOLV      1659            0.0000000000
      5091      1670  TIP3      H2             -1.3904781788      -36.3293715275       -1.3868333604  SOLV      1659            0.0000000000
      5092      1671  TIP3      OH2            -0.9064823984      -35.3447037552        0.0112696899  SOLV      1660            0.0000000000
      5093      1671  TIP3      H1             -1.6502996593      -35.0182304402        0.5606812920  SOLV      1660            0.0000000000
      5094      1671  TIP3      H2             -0.5675479843      -34.5167859957       -0.3924900424  SOLV      1660            0.0000000000
      5095      1672  TIP3      OH2           -14.7868385157      -38.2868632894        7.9658699998  SOLV      1661            0.0000000000
      5096      1672  TIP3      H1            -13.8064670807      -38.2510429042        7.9770908832  SOLV      1661            0.0000000000
      5097      1672  TIP3      H2            -14.9470207721      -39.1784025774        8.3043943348  SOLV      1661            0.0000000000
      5098      1673  TIP3      OH2           -16.9715983868      -38.6541861511        1.9919163619  SOLV      1662            0.0000000000
      5099      1673  TIP3      H1            -16.4241400723      -38.5398329001        1.1861944766  SOLV      1662            0.0000000000
      5100      1673  TIP3      H2            -16.6730152649      -37.9140732747        2.5381598227  SOLV      1662            0.0000000000
      5101      1674  TIP3      OH2            -5.4666656605      -26.5186306670       -7.8627691552  SOLV      1663            0.0000000000
      5102      1674  TIP3      H1             -4.9376107421      -26.5536851338       -8.6848167483  SOLV      1663            0.0000000000
      5103      1674  TIP3      H2             -5.0265941243      -25.8081607070       -7.3659669509  SOLV      1663            0.0000000000
      5104      1675  TIP3      OH2           -14.5153753029      -28.3879793043        5.9897480519  SOLV      1664            0.0000000000
      5105      1675  TIP3      H1            -15.4391149892      -28.6497344494        5.8132254552  SOLV      1664            0.0000000000
      5106      1675  TIP3      H2            -14.4010921911      -28.6798806884        6.9026760046  SOLV      1664            0.0000000000
      5107      1676  TIP3      OH2           -12.6837424120      -28.0796340797        1.4720593722  SOLV      1665            0.0000000000
      5108      1676  TIP3      H1            -13.1773334687      -27.3361818757        1.0659157927  SOLV      1665            0.0000000000
      5109      1676  TIP3      H2            -11.8309691413      -27.9424501839        1.0104837929  SOLV      1665            0.0000000000
      5110      1677  TIP3      OH2            -8.3284341501      -25.6919858703        2.8391217382  SOLV      1666            0.0000000000
      5111      1677  TIP3      H1             -7.8909858026      -25.7137758658        3.7177565154  SOLV      1666            0.0000000000
      5112      1677  TIP3      H2             -7.6748573419      -25.1703484583        2.3244890870  SOLV      1666            0.0000000000
      5113      1678  TIP3      OH2            -6.5263508569      -24.1453691371        1.4775015131  SOLV      1667            0.0000000000
      5114      1678  TIP3      H1             -5.8347969359      -24.6334326935        1.0095005172  SOLV      1667            0.0000000000
      5115      1678  TIP3      H2             -5.9830781288      -23.5790622684        2.0690794652  SOLV      1667            0.0000000000
      5116      1679  TIP3      OH2           -15.9657087079      -25.5413013937        1.7083709180  SOLV      1668            0.0000000000
      5117      1679  TIP3      H1            -16.8641586958      -25.2267599032        1.4635404306  SOLV      1668            0.0000000000
      5118      1679  TIP3      H2            -15.8757658579      -25.1362957823        2.5790325640  SOLV      1668            0.0000000000
      5119      1680  TIP3      OH2           -13.5947046016      -25.7662041913        0.3000169779  SOLV      1669            0.0000000000
      5120      1680  TIP3      H1            -14.4753062193      -25.6394758837        0.7182923360  SOLV      1669            0.0000000000
      5121      1680  TIP3      H2            -13.7693936311      -25.4531096593       -0.6107181060  SOLV      1669            0.0000000000
      5122      1681  TIP3      OH2            -9.3403654388      -25.5196586838       -1.7277636146  SOLV      1670            0.0000000000
      5123      1681  TIP3      H1            -10.0584765564      -25.3682012639       -2.3745536096  SOLV      1670            0.0000000000
      5124      1681  TIP3      H2             -9.2374039101      -24.6230175252       -1.3470239290  SOLV      1670            0.0000000000
      5125      1682  TIP3      OH2            -6.6511465425      -26.1318707302       -1.1945198741  SOLV      1671            0.0000000000
      5126      1682  TIP3      H1             -7.5900297641      -25.9385775082       -1.3925555105  SOLV      1671            0.0000000000
      5127      1682  TIP3      H2             -6.2030312714      -25.4094939537       -1.6647425268  SOLV      1671            0.0000000000
      5128      1683  TIP3      OH2            -4.6072877148      -24.2222984651       -2.0958016134  SOLV      1672            0.0000000000
      5129      1683  TIP3      H1             -4.7423539860      -23.3709268910       -2.5663080142  SOLV      1672            0.0000000000
      5130      1683  TIP3      H2             -4.3334810125      -24.8122575515       -2.8320242246  SOLV      1672            0.0000000000
      5131      1684  TIP3      OH2           -16.8600962287      -27.6361075765       -0.8560343991  SOLV      1673            0.0000000000
      5132      1684  TIP3      H1            -16.5808488120      -27.9275567925        0.0380885667  SOLV      1673            0.0000000000
      5133      1684  TIP3      H2            -16.1426867927      -28.0556229267       -1.3839627228  SOLV      1673            0.0000000000
      5134      1685  TIP3      OH2           -14.9026990089      -28.8999548564       -2.2438405326  SOLV      1674            0.0000000000
      5135      1685  TIP3      H1            -14.7455258986      -29.7334245060       -1.7397871605  SOLV      1674            0.0000000000
      5136      1685  TIP3      H2            -13.9917271746      -28.5435550139       -2.3045130059  SOLV      1674            0.0000000000
      5137      1686  TIP3      OH2           -12.2229793052      -28.0042317175       -2.2004027060  SOLV      1675            0.0000000000
      5138      1686  TIP3      H1            -11.9278143027      -28.9290932951       -2.2975140938  SOLV      1675            0.0000000000
      5139      1686  TIP3      H2            -11.7316619665      -27.7587419671       -1.3939968967  SOLV      1675            0.0000000000
      5140      1687  TIP3      OH2           -18.9616385881      -29.8389653802       -6.8909417464  SOLV      1676            0.0000000000
      5141      1687  TIP3      H1            -19.8670695242      -30.1143379244       -7.1274586058  SOLV      1676            0.0000000000
      5142      1687  TIP3      H2            -18.9742634515      -28.9578556688       -7.3209031764  SOLV      1676            0.0000000000
      5143      1688  TIP3      OH2           -11.2094946171      -28.0655024429      -11.1218726922  SOLV      1677            0.0000000000
      5144      1688  TIP3      H1            -10.3337623028      -27.8378105817      -11.4957313989  SOLV      1677            0.0000000000
      5145      1688  TIP3      H2            -11.4483353986      -28.8113705014      -11.7164245126  SOLV      1677            0.0000000000
      5146      1689  TIP3      OH2            -4.0027642673      -26.8041254949      -10.2045831305  SOLV      1678            0.0000000000
      5147      1689  TIP3      H1             -4.0859593376      -27.7849392562      -10.2753469143  SOLV      1678            0.0000000000
      5148      1689  TIP3      H2             -4.5323512166      -26.5202286728      -10.9765108038  SOLV      1678            0.0000000000
      5149      1690  TIP3      OH2            -1.8236674666      -25.4132167886        1.6673723840  SOLV      1679            0.0000000000
      5150      1690  TIP3      H1             -2.6033058420      -25.7058253687        1.1511333773  SOLV      1679            0.0000000000
      5151      1690  TIP3      H2             -2.0121078236      -24.4549507339        1.7383510864  SOLV      1679            0.0000000000
      5152      1691  TIP3      OH2            10.8908227930      -31.6252621481      -10.7258001610  SOLV      1680            0.0000000000
      5153      1691  TIP3      H1             10.5716812474      -30.7258759980      -10.9369018336  SOLV      1680            0.0000000000
      5154      1691  TIP3      H2             10.1206176091      -32.1576315297      -10.9836918116  SOLV      1680            0.0000000000
      5155      1692  TIP3      OH2            10.8485867133      -31.6751575460       -6.7883225228  SOLV      1681            0.0000000000
      5156      1692  TIP3      H1             11.2254188352      -31.8972182535       -5.9161505801  SOLV      1681            0.0000000000
      5157      1692  TIP3      H2             10.4994654220      -32.5346206823       -7.0743177869  SOLV      1681            0.0000000000
      5158      1693  TIP3      OH2             3.8156980027      -32.6982652433       -3.1996404930  SOLV      1682            0.0000000000
      5159      1693  TIP3      H1              4.1190050390      -33.4369675049       -2.6336182739  SOLV      1682            0.0000000000
      5160      1693  TIP3      H2              4.6455420133      -32.2135923660       -3.3052440279  SOLV      1682            0.0000000000
      5161      1694  TIP3      OH2            13.3287522682      -28.6120214422       -9.9994562383  SOLV      1683            0.0000000000
      5162      1694  TIP3      H1             13.1642982528      -29.2903791590       -9.3304947968  SOLV      1683            0.0000000000
      5163      1694  TIP3      H2             13.6505780497      -27.8663632479       -9.4628004135  SOLV      1683            0.0000000000
      5164      1695  TIP3      OH2             3.5963717485      -28.6252534739       -6.0101463722  SOLV      1684            0.0000000000
      5165      1695  TIP3      H1              3.5089288059      -29.6023065867       -5.9949399821  SOLV      1684            0.0000000000
      5166      1695  TIP3      H2              4.5647315107      -28.5331596327       -6.0485000256  SOLV      1684            0.0000000000
      5167      1696  TIP3      OH2             0.5275894063      -36.7077809174       -8.0599830886  SOLV      1685            0.0000000000
      5168      1696  TIP3      H1              0.1019323028      -35.8520728463       -7.8725365711  SOLV      1685            0.0000000000
      5169      1696  TIP3      H2             -0.1497972680      -37.1158100283       -8.6308420034  SOLV      1685            0.0000000000
      5170      1697  TIP3      OH2             1.2030011132      -33.7121360815       -6.3575463264  SOLV      1686            0.0000000000
      5171      1697  TIP3      H1              1.6804545958      -34.5168291312       -6.0495872156  SOLV      1686            0.0000000000
      5172      1697  TIP3      H2              1.8610094704      -33.2991268359       -6.9334215964  SOLV      1686            0.0000000000
      5173      1698  TIP3      OH2             9.8360535908      -24.0414178625       -9.8606931086  SOLV      1687            0.0000000000
      5174      1698  TIP3      H1             10.2532133293      -24.7600213565      -10.3781805585  SOLV      1687            0.0000000000
      5175      1698  TIP3      H2              9.7325756201      -24.4553537256       -8.9955019527  SOLV      1687            0.0000000000
      5176      1699  TIP3      OH2             8.8423981559      -29.4048779355       -6.3632035396  SOLV      1688            0.0000000000
      5177      1699  TIP3      H1              9.2617429156      -30.1905334007       -6.7564076487  SOLV      1688            0.0000000000
      5178      1699  TIP3      H2              9.6599593879      -28.9195914819       -6.1174418145  SOLV      1688            0.0000000000
      5179      1700  TIP3      OH2            18.8554607498      -35.9015980581       -6.6197493076  SOLV      1689            0.0000000000
      5180      1700  TIP3      H1             18.9846144487      -35.1749445595       -5.9775899833  SOLV      1689            0.0000000000
      5181      1700  TIP3      H2             18.7472632205      -35.3962250296       -7.4397034641  SOLV      1689            0.0000000000
      5182      1701  TIP3      OH2            12.8968424748      -34.4204941382       -6.0251376874  SOLV      1690            0.0000000000
      5183      1701  TIP3      H1             13.2220786151      -35.2836750859       -5.7491340740  SOLV      1690            0.0000000000
      5184      1701  TIP3      H2             12.5885846015      -34.5957522157       -6.9382408861  SOLV      1690            0.0000000000
      5185      1702  TIP3      OH2             6.2447724454      -37.8011577394       -6.3935039455  SOLV      1691            0.0000000000
      5186      1702  TIP3      H1              6.0142851680      -37.1402813910       -7.0821406188  SOLV      1691            0.0000000000
      5187      1702  TIP3      H2              5.7446041166      -38.5761966139       -6.6868247534  SOLV      1691            0.0000000000
      5188      1703  TIP3      OH2            13.3650654349      -36.6179868334      -10.0572280591  SOLV      1692            0.0000000000
      5189      1703  TIP3      H1             13.8204553187      -37.2815606567       -9.5151376992  SOLV      1692            0.0000000000
      5190      1703  TIP3      H2             13.7476014841      -36.7493519489      -10.9384393298  SOLV      1692            0.0000000000
      5191      1704  TIP3      OH2             2.5634223884      -35.8468787471       -5.3891261019  SOLV      1693            0.0000000000
      5192      1704  TIP3      H1              3.4078891986      -35.9594326219       -4.8881473752  SOLV      1693            0.0000000000
      5193      1704  TIP3      H2              2.7960284370      -36.3724449204       -6.1827017426  SOLV      1693            0.0000000000
      5194      1705  TIP3      OH2             7.1093593001      -33.8021820476       -7.3347916780  SOLV      1694            0.0000000000
      5195      1705  TIP3      H1              8.0505011762      -34.0654034517       -7.2401521041  SOLV      1694            0.0000000000
      5196      1705  TIP3      H2              6.7020600559      -34.6389709378       -7.6468281822  SOLV      1694            0.0000000000
      5197      1706  TIP3      OH2            19.4741197488      -33.9758728925       -4.7285153299  SOLV      1695            0.0000000000
      5198      1706  TIP3      H1             18.6168601627      -33.4996844697       -4.7599179088  SOLV      1695            0.0000000000
      5199      1706  TIP3      H2             19.9106291983      -33.5599563774       -3.9670395096  SOLV      1695            0.0000000000
      5200      1707  TIP3      OH2             9.8163174318      -29.3964962484      -12.0647844058  SOLV      1696            0.0000000000
      5201      1707  TIP3      H1              9.3164572650      -29.5781090763      -12.8745867841  SOLV      1696            0.0000000000
      5202      1707  TIP3      H2              9.3343095564      -28.6090087068      -11.7285586726  SOLV      1696            0.0000000000
      5203      1708  TIP3      OH2             7.4040704515      -30.2170852531       -4.1502459093  SOLV      1697            0.0000000000
      5204      1708  TIP3      H1              6.8157141841      -29.5188956091       -3.7879858886  SOLV      1697            0.0000000000
      5205      1708  TIP3      H2              7.8305106784      -29.7514021444       -4.9005171869  SOLV      1697            0.0000000000
      5206      1709  TIP3      OH2             4.9378195507      -36.4676743437       -4.3561562443  SOLV      1698            0.0000000000
      5207      1709  TIP3      H1              5.6832429618      -35.9406857667       -4.0131872283  SOLV      1698            0.0000000000
      5208      1709  TIP3      H2              5.3803396265      -37.0650466167       -4.9892194567  SOLV      1698            0.0000000000
      5209      1710  TIP3      OH2             5.7037479325      -28.2269358987       -3.1425935419  SOLV      1699            0.0000000000
      5210      1710  TIP3      H1              5.4498489184      -27.3474321309       -3.4904249299  SOLV      1699            0.0000000000
      5211      1710  TIP3      H2              4.9037644234      -28.4188757413       -2.6066015767  SOLV      1699            0.0000000000
      5212      1711  TIP3      OH2            -0.4160967359      -31.3356543695      -10.8075256125  SOLV      1700            0.0000000000
      5213      1711  TIP3      H1             -0.8829733707      -30.9621121098      -11.5707303907  SOLV      1700            0.0000000000
      5214      1711  TIP3      H2             -0.0701726079      -30.5171078548      -10.3873493972  SOLV      1700            0.0000000000
      5215      1712  TIP3      OH2            13.9808387593      -26.1819397481       -8.4059130244  SOLV      1701            0.0000000000
      5216      1712  TIP3      H1             13.0860795685      -26.2691656352       -8.0043365577  SOLV      1701            0.0000000000
      5217      1712  TIP3      H2             13.9020080612      -25.3114821631       -8.8460115320  SOLV      1701            0.0000000000
      5218      1713  TIP3      OH2            10.9937421937      -25.7893236457      -11.6988538364  SOLV      1702            0.0000000000
      5219      1713  TIP3      H1             11.5157461409      -26.6065391192      -11.8668981072  SOLV      1702            0.0000000000
      5220      1713  TIP3      H2             11.6236274897      -25.1254424221      -12.0657065109  SOLV      1702            0.0000000000
      5221      1714  TIP3      OH2            12.4365418550      -27.9823829914      -12.5194780123  SOLV      1703            0.0000000000
      5222      1714  TIP3      H1             11.7822502501      -28.6855953494      -12.6417500196  SOLV      1703            0.0000000000
      5223      1714  TIP3      H2             12.8707579608      -28.2645355280      -11.6830457255  SOLV      1703            0.0000000000
      5224      1715  TIP3      OH2            16.2484144627      -27.1120394965       -4.9272457862  SOLV      1704            0.0000000000
      5225      1715  TIP3      H1             16.1255648771      -27.8816624882       -5.5259603525  SOLV      1704            0.0000000000
      5226      1715  TIP3      H2             16.0630246304      -26.3625697089       -5.5322995976  SOLV      1704            0.0000000000
      5227      1716  TIP3      OH2             9.1760287527      -33.1480996235      -12.3862862084  SOLV      1705            0.0000000000
      5228      1716  TIP3      H1              8.3572737621      -32.6292629687      -12.5241859499  SOLV      1705            0.0000000000
      5229      1716  TIP3      H2              9.5865125780      -33.1092084084      -13.2624482095  SOLV      1705            0.0000000000
      5230      1717  TIP3      OH2             8.7207036486      -35.2592400917      -15.1741655381  SOLV      1706            0.0000000000
      5231      1717  TIP3      H1              9.3580106343      -34.7608307029      -14.6386101639  SOLV      1706            0.0000000000
      5232      1717  TIP3      H2              9.3398317033      -35.8019324904      -15.7056429587  SOLV      1706            0.0000000000
      5233      1718  TIP3      OH2            18.1933720753      -30.6825310155       -6.4946819984  SOLV      1707            0.0000000000
      5234      1718  TIP3      H1             17.3574218174      -30.1685047235       -6.4810335634  SOLV      1707            0.0000000000
      5235      1718  TIP3      H2             18.5205422500      -30.4586140013       -7.3929580280  SOLV      1707            0.0000000000
      5236      1719  TIP3      OH2            12.6784362355      -32.3444139317      -12.6415720160  SOLV      1708            0.0000000000
      5237      1719  TIP3      H1             12.1226577579      -32.0990093865      -11.8630199582  SOLV      1708            0.0000000000
      5238      1719  TIP3      H2             13.5227233685      -32.5605154210      -12.1923714099  SOLV      1708            0.0000000000
      5239      1720  TIP3      OH2            14.9083276891      -31.8486539311       -3.4504429591  SOLV      1709            0.0000000000
      5240      1720  TIP3      H1             14.8518301376      -31.0270118145       -2.9317818612  SOLV      1709            0.0000000000
      5241      1720  TIP3      H2             14.0464124435      -31.8401393364       -3.9102262874  SOLV      1709            0.0000000000
      5242      1721  TIP3      OH2             5.0046730458      -32.3512664097       -8.4570743877  SOLV      1710            0.0000000000
      5243      1721  TIP3      H1              4.5720254880      -32.9407289133       -9.1118821362  SOLV      1710            0.0000000000
      5244      1721  TIP3      H2              5.7535908465      -32.9027396571       -8.1457831321  SOLV      1710            0.0000000000
      5245      1722  TIP3      OH2             6.2940305248      -28.2325574605       -7.0008537482  SOLV      1711            0.0000000000
      5246      1722  TIP3      H1              6.0972862256      -28.5781174870       -7.8849639273  SOLV      1711            0.0000000000
      5247      1722  TIP3      H2              7.1795748149      -28.6139835270       -6.8243167320  SOLV      1711            0.0000000000
      5248      1723  TIP3      OH2             6.3066877985      -32.6511360956       -4.9050917496  SOLV      1712            0.0000000000
      5249      1723  TIP3      H1              6.6457245230      -32.9348267245       -5.7814167443  SOLV      1712            0.0000000000
      5250      1723  TIP3      H2              6.7723560838      -31.8012821212       -4.7581571402  SOLV      1712            0.0000000000
      5251      1724  TIP3      OH2            11.5865700412      -26.2505979839       -7.1577762640  SOLV      1713            0.0000000000
      5252      1724  TIP3      H1             11.4650809459      -25.4501539094       -6.6170316348  SOLV      1713            0.0000000000
      5253      1724  TIP3      H2             11.4192749398      -26.9773094037       -6.5251536108  SOLV      1713            0.0000000000
      5254      1725  TIP3      OH2             7.7304648028      -27.0739912026       -1.6726479358  SOLV      1714            0.0000000000
      5255      1725  TIP3      H1              7.0979050848      -26.4685114584       -1.2282723726  SOLV      1714            0.0000000000
      5256      1725  TIP3      H2              7.1055975075      -27.6103589572       -2.2045157850  SOLV      1714            0.0000000000
      5257      1726  TIP3      OH2            11.1627681366      -33.7230840422      -14.4638934281  SOLV      1715            0.0000000000
      5258      1726  TIP3      H1             11.6673860963      -33.1287354647      -13.8618082861  SOLV      1715            0.0000000000
      5259      1726  TIP3      H2             11.5614155450      -33.5025221185      -15.3259547878  SOLV      1715            0.0000000000
      5260      1727  TIP3      OH2             5.3169856856      -31.5487550661       -0.5796095266  SOLV      1716            0.0000000000
      5261      1727  TIP3      H1              5.3409458815      -30.6427682711       -0.2110041059  SOLV      1716            0.0000000000
      5262      1727  TIP3      H2              4.3601802206      -31.7414853353       -0.5033363661  SOLV      1716            0.0000000000
      5263      1728  TIP3      OH2             8.5190844228      -26.9854071008      -11.6377202358  SOLV      1717            0.0000000000
      5264      1728  TIP3      H1              9.3532482349      -26.4775692156      -11.5801680739  SOLV      1717            0.0000000000
      5265      1728  TIP3      H2              7.9139998410      -26.3432253800      -12.0298366791  SOLV      1717            0.0000000000
      5266      1729  TIP3      OH2             5.6574264876      -25.4284655063       -0.7984801628  SOLV      1718            0.0000000000
      5267      1729  TIP3      H1              5.3062706222      -25.3667938520       -1.7074252737  SOLV      1718            0.0000000000
      5268      1729  TIP3      H2              4.8499562020      -25.6504596395       -0.2812911940  SOLV      1718            0.0000000000
      5269      1730  TIP3      OH2             3.6348054848      -33.8983607028      -10.4013049181  SOLV      1719            0.0000000000
      5270      1730  TIP3      H1              2.9018217792      -33.5235675171      -10.9321205222  SOLV      1719            0.0000000000
      5271      1730  TIP3      H2              3.4190928139      -34.8378934047      -10.3869959104  SOLV      1719            0.0000000000
      5272      1731  TIP3      OH2            14.1778910194      -27.7654139949      -18.3896162863  SOLV      1720            0.0000000000
      5273      1731  TIP3      H1             14.2413125519      -26.7991275556      -18.5570947831  SOLV      1720            0.0000000000
      5274      1731  TIP3      H2             15.1149502845      -28.0289873993      -18.5111063706  SOLV      1720            0.0000000000
      5275      1732  TIP3      OH2             1.4413293453      -30.0639485855       -1.3429018201  SOLV      1721            0.0000000000
      5276      1732  TIP3      H1              0.7599679068      -30.2601031579       -2.0198101566  SOLV      1721            0.0000000000
      5277      1732  TIP3      H2              1.8266474166      -30.9441002872       -1.1571381644  SOLV      1721            0.0000000000
      5278      1733  TIP3      OH2            -0.0165257225      -28.1438110254       -5.0414875650  SOLV      1722            0.0000000000
      5279      1733  TIP3      H1              0.9498151536      -28.1560236599       -5.0829924116  SOLV      1722            0.0000000000
      5280      1733  TIP3      H2             -0.1740952139      -27.3548814930       -4.4990894954  SOLV      1722            0.0000000000
      5281      1734  TIP3      OH2            18.6112261773      -23.6127292197       -4.4099932848  SOLV      1723            0.0000000000
      5282      1734  TIP3      H1             18.6073875898      -24.5820995425       -4.2911386179  SOLV      1723            0.0000000000
      5283      1734  TIP3      H2             17.7670796726      -23.3756014589       -3.9697795292  SOLV      1723            0.0000000000
      5284      1735  TIP3      OH2             9.6870900122      -25.8077420960       -3.0953873110  SOLV      1724            0.0000000000
      5285      1735  TIP3      H1              9.6364146095      -24.8793574215       -2.7810392400  SOLV      1724            0.0000000000
      5286      1735  TIP3      H2              8.9615397970      -26.2174954724       -2.5726984082  SOLV      1724            0.0000000000
      5287      1736  TIP3      OH2             7.3366943201      -24.5283304532      -13.5782450637  SOLV      1725            0.0000000000
      5288      1736  TIP3      H1              6.8768505187      -24.6478835870      -14.4272223992  SOLV      1725            0.0000000000
      5289      1736  TIP3      H2              7.0139290464      -23.6539821723      -13.2857717341  SOLV      1725            0.0000000000
      5290      1737  TIP3      OH2             1.6968217285      -26.0229031343       -9.7160345070  SOLV      1726            0.0000000000
      5291      1737  TIP3      H1              2.1817723310      -26.0951275991       -8.8630008435  SOLV      1726            0.0000000000
      5292      1737  TIP3      H2              1.1472755260      -26.8230115525       -9.6783986501  SOLV      1726            0.0000000000
      5293      1738  TIP3      OH2             9.2769991254      -25.5030315432      -17.2089090471  SOLV      1727            0.0000000000
      5294      1738  TIP3      H1              9.8703805071      -26.1980368046      -17.5664730168  SOLV      1727            0.0000000000
      5295      1738  TIP3      H2              9.6511969843      -25.3673318562      -16.3127282173  SOLV      1727            0.0000000000
      5296      1739  TIP3      OH2             9.8393425081      -24.9944376465      -14.5239400305  SOLV      1728            0.0000000000
      5297      1739  TIP3      H1              8.9597821945      -24.9068436287      -14.0946198308  SOLV      1728            0.0000000000
      5298      1739  TIP3      H2             10.3802318222      -25.3102742511      -13.7817642050  SOLV      1728            0.0000000000
      5299      1740  TIP3      OH2            17.4411862581      -32.0990367043       -1.4047198804  SOLV      1729            0.0000000000
      5300      1740  TIP3      H1             16.6359387860      -31.9081293273       -1.9085541179  SOLV      1729            0.0000000000
      5301      1740  TIP3      H2             17.6040683910      -33.0329068931       -1.6836955999  SOLV      1729            0.0000000000
      5302      1741  TIP3      OH2             3.4907815939      -28.2510556924       -1.5235615897  SOLV      1730            0.0000000000
      5303      1741  TIP3      H1              3.9703839646      -28.4105478794       -0.6872713611  SOLV      1730            0.0000000000
      5304      1741  TIP3      H2              2.7388566189      -28.8756982692       -1.4449359152  SOLV      1730            0.0000000000
      5305      1742  TIP3      OH2            15.0290161227      -34.5797318805       -2.6038328031  SOLV      1731            0.0000000000
      5306      1742  TIP3      H1             14.5683778605      -34.7512146002       -1.7555716622  SOLV      1731            0.0000000000
      5307      1742  TIP3      H2             14.7906316249      -33.6596455460       -2.8055976828  SOLV      1731            0.0000000000
      5308      1743  TIP3      OH2            12.3886666352      -33.2101064838      -17.1655591411  SOLV      1732            0.0000000000
      5309      1743  TIP3      H1             11.8352861287      -33.4607436643      -17.9304879446  SOLV      1732            0.0000000000
      5310      1743  TIP3      H2             12.2507597284      -32.2473721345      -17.1522030308  SOLV      1732            0.0000000000
      5311      1744  TIP3      OH2             6.9300816476      -34.8413500251       -3.3841337458  SOLV      1733            0.0000000000
      5312      1744  TIP3      H1              6.3411101008      -34.6639835294       -2.6185205228  SOLV      1733            0.0000000000
      5313      1744  TIP3      H2              6.7500267681      -34.0456868796       -3.9321970170  SOLV      1733            0.0000000000
      5314      1745  TIP3      OH2             5.5571106303      -35.9242647667       -8.2329606696  SOLV      1734            0.0000000000
      5315      1745  TIP3      H1              4.6356941831      -36.2440795751       -8.1584686166  SOLV      1734            0.0000000000
      5316      1745  TIP3      H2              5.7778955565      -36.2251638207       -9.1487814830  SOLV      1734            0.0000000000
      5317      1746  TIP3      OH2            10.5456144348      -35.1007377417      -10.9531651316  SOLV      1735            0.0000000000
      5318      1746  TIP3      H1             10.0371188168      -34.4233861550      -11.4464594703  SOLV      1735            0.0000000000
      5319      1746  TIP3      H2             11.0771013056      -35.5182231804      -11.6566984088  SOLV      1735            0.0000000000
      5320      1747  TIP3      OH2            12.3921113654      -32.1893079569       -0.3385960337  SOLV      1736            0.0000000000
      5321      1747  TIP3      H1             12.0959157726      -32.8838286250        0.2925788198  SOLV      1736            0.0000000000
      5322      1747  TIP3      H2             13.3317301625      -32.1140121670       -0.0765613045  SOLV      1736            0.0000000000
      5323      1748  TIP3      OH2            12.0488924585      -34.7686761529       -8.6020168910  SOLV      1737            0.0000000000
      5324      1748  TIP3      H1             11.4011268307      -34.5452425828       -9.3005648641  SOLV      1737            0.0000000000
      5325      1748  TIP3      H2             12.4811890344      -35.5246667833       -9.0670604263  SOLV      1737            0.0000000000
      5326      1749  TIP3      OH2             5.0337407306      -34.4545643586       -1.4489577957  SOLV      1738            0.0000000000
      5327      1749  TIP3      H1              5.2730230990      -33.8134842223       -0.7642216564  SOLV      1738            0.0000000000
      5328      1749  TIP3      H2              4.8849756558      -35.2675814053       -0.9125266580  SOLV      1738            0.0000000000
      5329      1750  TIP3      OH2             5.2443921456      -39.7103761510      -13.8602403749  SOLV      1739            0.0000000000
      5330      1750  TIP3      H1              5.0896765912      -39.5350034978      -12.9231607457  SOLV      1739            0.0000000000
      5331      1750  TIP3      H2              4.5651650041      -39.1522621464      -14.2789980504  SOLV      1739            0.0000000000
      5332      1751  TIP3      OH2             0.8665297792      -39.2919102774      -10.1333576262  SOLV      1740            0.0000000000
      5333      1751  TIP3      H1              1.0872705105      -38.8427493647      -10.9776247938  SOLV      1740            0.0000000000
      5334      1751  TIP3      H2              0.0758384921      -38.7892268125       -9.8850657143  SOLV      1740            0.0000000000
      5335      1752  TIP3      OH2            12.1702832029      -32.4250986687       -4.4025773176  SOLV      1741            0.0000000000
      5336      1752  TIP3      H1             12.5229916903      -33.1130019665       -5.0163230753  SOLV      1741            0.0000000000
      5337      1752  TIP3      H2             11.9111020373      -33.0023758605       -3.6530123488  SOLV      1741            0.0000000000
      5338      1753  TIP3      OH2             8.6678681753      -37.5055325848       -7.8507236344  SOLV      1742            0.0000000000
      5339      1753  TIP3      H1              8.0396963721      -37.4039641860       -7.1140232091  SOLV      1742            0.0000000000
      5340      1753  TIP3      H2              9.5327267188      -37.3497297228       -7.4157269948  SOLV      1742            0.0000000000
      5341      1754  TIP3      OH2             3.1567971640      -37.2942858307       -7.6779940009  SOLV      1743            0.0000000000
      5342      1754  TIP3      H1              2.2258272441      -37.1065409817       -7.9448318680  SOLV      1743            0.0000000000
      5343      1754  TIP3      H2              3.1355996990      -38.2630458922       -7.5988783031  SOLV      1743            0.0000000000
      5344      1755  TIP3      OH2             6.0365011528      -36.9534522558      -10.6728077141  SOLV      1744            0.0000000000
      5345      1755  TIP3      H1              6.9553420991      -37.1875791359      -10.9122494245  SOLV      1744            0.0000000000
      5346      1755  TIP3      H2              5.5468332150      -37.0399592869      -11.5142570054  SOLV      1744            0.0000000000
      5347      1756  TIP3      OH2             4.3684279084      -36.8601870465      -12.9323788667  SOLV      1745            0.0000000000
      5348      1756  TIP3      H1              3.6291215053      -37.1667852170      -13.4891630523  SOLV      1745            0.0000000000
      5349      1756  TIP3      H2              4.9445442982      -36.4671271431      -13.6203233736  SOLV      1745            0.0000000000
      5350      1757  TIP3      OH2            15.5617044001      -20.1354989836       -3.4707938071  SOLV      1746            0.0000000000
      5351      1757  TIP3      H1             15.4875158507      -19.9085572985       -4.4182702314  SOLV      1746            0.0000000000
      5352      1757  TIP3      H2             16.3735346282      -19.6463989775       -3.2291944389  SOLV      1746            0.0000000000
      5353      1758  TIP3      OH2             5.1175071645      -29.0318973529        0.7318861881  SOLV      1747            0.0000000000
      5354      1758  TIP3      H1              5.9124906285      -28.7376580428        1.2182845382  SOLV      1747            0.0000000000
      5355      1758  TIP3      H2              4.4612957391      -29.0411245204        1.4564354168  SOLV      1747            0.0000000000
      5356      1759  TIP3      OH2             9.7167777609      -34.5858392378       -6.6730233010  SOLV      1748            0.0000000000
      5357      1759  TIP3      H1             10.4167875791      -35.0155335302       -7.1921862033  SOLV      1748            0.0000000000
      5358      1759  TIP3      H2              9.8236096346      -35.0193046750       -5.8102745408  SOLV      1748            0.0000000000
      5359      1760  TIP3      OH2             9.5396465928      -35.6955509529       -3.5957442413  SOLV      1749            0.0000000000
      5360      1760  TIP3      H1              8.6490990825      -35.3042941844       -3.4826632884  SOLV      1749            0.0000000000
      5361      1760  TIP3      H2             10.1191911318      -35.0359126040       -3.1730350937  SOLV      1749            0.0000000000
      5362      1761  TIP3      OH2             6.8473765410      -31.6446537218      -12.8835018956  SOLV      1750            0.0000000000
      5363      1761  TIP3      H1              6.1249866545      -32.2995660297      -12.9927385682  SOLV      1750            0.0000000000
      5364      1761  TIP3      H2              6.6390980219      -31.2941152404      -11.9806882234  SOLV      1750            0.0000000000
      5365      1762  TIP3      OH2            15.8466810058      -29.2528575328       -6.6143377362  SOLV      1751            0.0000000000
      5366      1762  TIP3      H1             16.0880107080      -28.7385986227       -7.4142861345  SOLV      1751            0.0000000000
      5367      1762  TIP3      H2             15.0119317564      -29.6919222224       -6.8895644754  SOLV      1751            0.0000000000
      5368      1763  TIP3      OH2            11.4787304535      -38.3501560904      -14.5288343486  SOLV      1752            0.0000000000
      5369      1763  TIP3      H1             10.6726708600      -38.6973815257      -14.1345461465  SOLV      1752            0.0000000000
      5370      1763  TIP3      H2             11.6566731811      -37.5518300603      -13.9933355237  SOLV      1752            0.0000000000
      5371      1764  TIP3      OH2            10.8408180451      -28.4419244563       -2.8959501302  SOLV      1753            0.0000000000
      5372      1764  TIP3      H1             11.1787396821      -28.6137754118       -2.0089916716  SOLV      1753            0.0000000000
      5373      1764  TIP3      H2             10.4702386800      -27.5456710855       -2.8211027484  SOLV      1753            0.0000000000
      5374      1765  TIP3      OH2            12.1345956602      -36.0295931017      -13.1549368250  SOLV      1754            0.0000000000
      5375      1765  TIP3      H1             13.0806805376      -35.9380664321      -12.9276842157  SOLV      1754            0.0000000000
      5376      1765  TIP3      H2             11.9361849468      -35.2006240346      -13.6299496731  SOLV      1754            0.0000000000
      5377      1766  TIP3      OH2             3.8035146511      -31.4080615346       -6.1409676286  SOLV      1755            0.0000000000
      5378      1766  TIP3      H1              4.2031429328      -31.6923595660       -6.9889647587  SOLV      1755            0.0000000000
      5379      1766  TIP3      H2              4.2827279283      -31.9607523727       -5.5042906778  SOLV      1755            0.0000000000
      5380      1767  TIP3      OH2             8.3356563377      -30.1428979720      -14.6211235404  SOLV      1756            0.0000000000
      5381      1767  TIP3      H1              7.8338487922      -29.2920934384      -14.6089164387  SOLV      1756            0.0000000000
      5382      1767  TIP3      H2              7.7831017534      -30.6905507573      -14.0215751488  SOLV      1756            0.0000000000
      5383      1768  TIP3      OH2             2.6521579062      -32.1991926856        0.0234929596  SOLV      1757            0.0000000000
      5384      1768  TIP3      H1              2.8123553247      -32.3380886376        0.9774985382  SOLV      1757            0.0000000000
      5385      1768  TIP3      H2              1.9569944844      -32.8556844511       -0.1503504181  SOLV      1757            0.0000000000
      5386      1769  TIP3      OH2             9.9130845319      -31.0028246009        0.2101617489  SOLV      1758            0.0000000000
      5387      1769  TIP3      H1              9.2996956841      -31.6328009126       -0.2040933246  SOLV      1758            0.0000000000
      5388      1769  TIP3      H2             10.7731734347      -31.3084275773       -0.1484628235  SOLV      1758            0.0000000000
      5389      1770  TIP3      OH2            12.4434109700      -25.8299757435       -3.8987537571  SOLV      1759            0.0000000000
      5390      1770  TIP3      H1             11.4782772995      -25.8578202447       -3.7732775506  SOLV      1759            0.0000000000
      5391      1770  TIP3      H2             12.7127383200      -25.2931550086       -3.1258248570  SOLV      1759            0.0000000000
      5392      1771  TIP3      OH2            16.4588548656      -35.0420462486      -14.7660814071  SOLV      1760            0.0000000000
      5393      1771  TIP3      H1             15.9404806664      -35.6812273070      -15.2645522835  SOLV      1760            0.0000000000
      5394      1771  TIP3      H2             16.2685225863      -34.2126261315      -15.2547073684  SOLV      1760            0.0000000000
      5395      1772  TIP3      OH2            18.7522093454      -26.4774490265       -4.0641138070  SOLV      1761            0.0000000000
      5396      1772  TIP3      H1             17.7776173395      -26.5683787206       -4.1514063484  SOLV      1761            0.0000000000
      5397      1772  TIP3      H2             19.0265630096      -26.8019422895       -4.9532032773  SOLV      1761            0.0000000000
      5398      1773  TIP3      OH2            13.5269225354      -26.9125551478      -15.7643293972  SOLV      1762            0.0000000000
      5399      1773  TIP3      H1             13.2988463477      -27.5945109599      -15.1176696378  SOLV      1762            0.0000000000
      5400      1773  TIP3      H2             13.7057498327      -27.4160229902      -16.5782185573  SOLV      1762            0.0000000000
      5401      1774  TIP3      OH2            13.4943755317      -30.5971954947       -7.4492496496  SOLV      1763            0.0000000000
      5402      1774  TIP3      H1             12.5642413267      -30.8540398565       -7.3049587209  SOLV      1763            0.0000000000
      5403      1774  TIP3      H2             13.8259322744      -31.4013798320       -7.9029471004  SOLV      1763            0.0000000000
      5404      1775  TIP3      OH2             4.8302270804      -28.3419219604       -9.8714451657  SOLV      1764            0.0000000000
      5405      1775  TIP3      H1              4.7721577617      -27.5347001706      -10.4180612941  SOLV      1764            0.0000000000
      5406      1775  TIP3      H2              3.9025234990      -28.5042090440       -9.6690883050  SOLV      1764            0.0000000000
      5407      1776  TIP3      OH2             0.4567446683      -35.2850176367      -12.7792436631  SOLV      1765            0.0000000000
      5408      1776  TIP3      H1              0.8913673410      -34.4378227943      -12.5419767784  SOLV      1765            0.0000000000
      5409      1776  TIP3      H2             -0.3159559388      -35.2735027637      -12.1719134914  SOLV      1765            0.0000000000
      5410      1777  TIP3      OH2             6.1141873199      -30.7310976757      -10.4693580447  SOLV      1766            0.0000000000
      5411      1777  TIP3      H1              5.7765142360      -29.8377961401      -10.2566603333  SOLV      1766            0.0000000000
      5412      1777  TIP3      H2              5.7988805935      -31.2447329612       -9.7016653198  SOLV      1766            0.0000000000
      5413      1778  TIP3      OH2             7.5253265345      -24.9234360060       -5.1867855490  SOLV      1767            0.0000000000
      5414      1778  TIP3      H1              7.9485063265      -24.1952679521       -5.6889115385  SOLV      1767            0.0000000000
      5415      1778  TIP3      H2              8.2932567156      -25.3136805996       -4.7405886814  SOLV      1767            0.0000000000
      5416      1779  TIP3      OH2             3.9752596084      -25.9554520534      -11.3568468851  SOLV      1768            0.0000000000
      5417      1779  TIP3      H1              3.1343713432      -25.8581816508      -10.8669494603  SOLV      1768            0.0000000000
      5418      1779  TIP3      H2              4.3194304279      -25.0342546267      -11.3145459254  SOLV      1768            0.0000000000
      5419      1780  TIP3      OH2            11.3481844665      -28.5806386790       -5.5714750828  SOLV      1769            0.0000000000
      5420      1780  TIP3      H1             11.2341903206      -28.6048473424       -4.5940288348  SOLV      1769            0.0000000000
      5421      1780  TIP3      H2             12.1443559368      -29.1179342156       -5.6838377862  SOLV      1769            0.0000000000
      5422      1781  TIP3      OH2            11.0945113638      -29.8740382213      -16.7045883123  SOLV      1770            0.0000000000
      5423      1781  TIP3      H1             11.6388348863      -30.0279170201      -15.8972814561  SOLV      1770            0.0000000000
      5424      1781  TIP3      H2             10.1992320655      -29.8953148116      -16.3365127636  SOLV      1770            0.0000000000
      5425      1782  TIP3      OH2            13.8539768225      -23.2704961266       -5.0815823442  SOLV      1771            0.0000000000
      5426      1782  TIP3      H1             13.0450461342      -23.8150478535       -5.1481304819  SOLV      1771            0.0000000000
      5427      1782  TIP3      H2             13.7044136903      -22.6298319122       -5.8126519022  SOLV      1771            0.0000000000
      5428      1783  TIP3      OH2            14.5049421007      -24.9701436055      -18.5597412908  SOLV      1772            0.0000000000
      5429      1783  TIP3      H1             14.8759701737      -24.2524445922      -19.0998305176  SOLV      1772            0.0000000000
      5430      1783  TIP3      H2             13.7159784058      -24.5071053772      -18.2087139405  SOLV      1772            0.0000000000
      5431      1784  TIP3      OH2             4.6863414996      -36.6215456201        0.2020170576  SOLV      1773            0.0000000000
      5432      1784  TIP3      H1              3.9615334399      -37.2340394043       -0.0156183928  SOLV      1773            0.0000000000
      5433      1784  TIP3      H2              5.2036094109      -37.1853426391        0.8006982336  SOLV      1773            0.0000000000
      5434      1785  TIP3      OH2            12.7949875158      -30.4884351352      -14.6822461831  SOLV      1774            0.0000000000
      5435      1785  TIP3      H1             12.6930356024      -31.0153821335      -13.8649457799  SOLV      1774            0.0000000000
      5436      1785  TIP3      H2             13.7705469360      -30.4233360587      -14.7292918653  SOLV      1774            0.0000000000
      5437      1786  TIP3      OH2             1.9063084844      -26.3350743144       -3.6149274842  SOLV      1775            0.0000000000
      5438      1786  TIP3      H1              2.4567940329      -27.0151099329       -3.1910028333  SOLV      1775            0.0000000000
      5439      1786  TIP3      H2              2.1221584404      -25.5555924351       -3.0861538008  SOLV      1775            0.0000000000
      5440      1787  TIP3      OH2             4.7526138209      -29.9429716901      -16.7915133345  SOLV      1776            0.0000000000
      5441      1787  TIP3      H1              4.9361932325      -30.8839350617      -16.9697129559  SOLV      1776            0.0000000000
      5442      1787  TIP3      H2              4.5263878956      -29.9570942061      -15.8424410935  SOLV      1776            0.0000000000
      5443      1788  TIP3      OH2             4.1831800923      -29.7925778451      -14.0289631019  SOLV      1777            0.0000000000
      5444      1788  TIP3      H1              4.9537948610      -30.0715212799      -13.5133960141  SOLV      1777            0.0000000000
      5445      1788  TIP3      H2              4.2355022809      -28.8131463362      -13.9413546469  SOLV      1777            0.0000000000
      5446      1789  TIP3      OH2             1.5407674666      -32.8770703351      -11.9717739584  SOLV      1778            0.0000000000
      5447      1789  TIP3      H1              0.8699241138      -32.4141430034      -11.4232576528  SOLV      1778            0.0000000000
      5448      1789  TIP3      H2              1.7275933756      -32.1902539640      -12.6350487494  SOLV      1778            0.0000000000
      5449      1790  TIP3      OH2             6.8916936133      -27.8697682413      -14.5466822805  SOLV      1779            0.0000000000
      5450      1790  TIP3      H1              6.0272449510      -27.6208405501      -14.1666292365  SOLV      1779            0.0000000000
      5451      1790  TIP3      H2              7.0691013869      -27.0852699676      -15.0885299054  SOLV      1779            0.0000000000
      5452      1791  TIP3      OH2             8.8546475058      -37.2939050885      -10.5522887590  SOLV      1780            0.0000000000
      5453      1791  TIP3      H1              9.4723087730      -36.5406539017      -10.6118766731  SOLV      1780            0.0000000000
      5454      1791  TIP3      H2              8.7635434818      -37.3764573594       -9.5794168283  SOLV      1780            0.0000000000
      5455      1792  TIP3      OH2            11.5913543640      -34.0913849582       -2.3052885534  SOLV      1781            0.0000000000
      5456      1792  TIP3      H1             11.7713496886      -33.4571434175       -1.5835841846  SOLV      1781            0.0000000000
      5457      1792  TIP3      H2             12.1162986263      -34.8585022594       -2.0274953217  SOLV      1781            0.0000000000
      5458      1793  TIP3      OH2             4.3582932489      -27.0824095836      -13.8237020509  SOLV      1782            0.0000000000
      5459      1793  TIP3      H1              4.0466071159      -26.3820796654      -14.4359013239  SOLV      1782            0.0000000000
      5460      1793  TIP3      H2              4.2050122219      -26.6587908472      -12.9481112216  SOLV      1782            0.0000000000
      5461      1794  TIP3      OH2            17.7525264503      -34.5738120921       -2.4073498807  SOLV      1783            0.0000000000
      5462      1794  TIP3      H1             16.8034595622      -34.7645770309       -2.5804339623  SOLV      1783            0.0000000000
      5463      1794  TIP3      H2             18.2026174558      -35.1439304557       -3.0508114446  SOLV      1783            0.0000000000
      5464      1795  TIP3      OH2            14.2701643924      -32.9645208483       -8.6928624560  SOLV      1784            0.0000000000
      5465      1795  TIP3      H1             13.5354857459      -33.5870820606       -8.5376437844  SOLV      1784            0.0000000000
      5466      1795  TIP3      H2             15.0124719933      -33.4010944908       -8.2082974524  SOLV      1784            0.0000000000
      5467      1796  TIP3      OH2             1.5629441695      -30.7962055370      -14.0377786111  SOLV      1785            0.0000000000
      5468      1796  TIP3      H1              2.3400273280      -30.2285282517      -13.8555879315  SOLV      1785            0.0000000000
      5469      1796  TIP3      H2              1.9943749816      -31.4371620721      -14.6464690698  SOLV      1785            0.0000000000
      5470      1797  TIP3      OH2             0.8975516498      -37.9691188502      -12.5254097452  SOLV      1786            0.0000000000
      5471      1797  TIP3      H1              0.8987177700      -36.9916296575      -12.5733128609  SOLV      1786            0.0000000000
      5472      1797  TIP3      H2              0.2470092200      -38.1980614563      -13.2004723740  SOLV      1786            0.0000000000
      5473      1798  TIP3      OH2            14.0812748938      -23.4868310621       -9.1657392024  SOLV      1787            0.0000000000
      5474      1798  TIP3      H1             13.6515467191      -23.0178983218       -9.9173389310  SOLV      1787            0.0000000000
      5475      1798  TIP3      H2             15.0253591466      -23.2942448231       -9.3685490666  SOLV      1787            0.0000000000
      5476      1799  TIP3      OH2             0.1404162094      -28.7223319676      -10.0934901824  SOLV      1788            0.0000000000
      5477      1799  TIP3      H1             -0.4156708093      -28.3856449583       -9.3764271923  SOLV      1788            0.0000000000
      5478      1799  TIP3      H2             -0.2358733977      -28.2509974155      -10.8763778107  SOLV      1788            0.0000000000
      5479      1800  TIP3      OH2             1.8208907624      -23.1502517260        0.6491453214  SOLV      1789            0.0000000000
      5480      1800  TIP3      H1              2.6893720892      -23.1535626466        1.1096180125  SOLV      1789            0.0000000000
      5481      1800  TIP3      H2              1.6155435671      -24.0997776152        0.6334739124  SOLV      1789            0.0000000000
      5482      1801  TIP3      OH2             6.5875847089      -23.6528725739        1.1203900420  SOLV      1790            0.0000000000
      5483      1801  TIP3      H1              7.5341812012      -23.8496709792        1.1241776347  SOLV      1790            0.0000000000
      5484      1801  TIP3      H2              6.2842169244      -24.2457722628        0.4017324101  SOLV      1790            0.0000000000
      5485      1802  TIP3      OH2             6.3652326634      -27.8582951342      -17.6577341558  SOLV      1791            0.0000000000
      5486      1802  TIP3      H1              5.8151336400      -28.5917435651      -17.2968589444  SOLV      1791            0.0000000000
      5487      1802  TIP3      H2              7.1348630262      -28.3544047570      -17.9908683547  SOLV      1791            0.0000000000
      5488      1803  TIP3      OH2            12.9475632133      -24.4828892914       -1.5256535915  SOLV      1792            0.0000000000
      5489      1803  TIP3      H1             12.8972279698      -25.2035609821       -0.8539185378  SOLV      1792            0.0000000000
      5490      1803  TIP3      H2             13.7500754449      -24.0041870648       -1.2502190075  SOLV      1792            0.0000000000
      5491      1804  TIP3      OH2            10.7721833599      -27.4559905216      -18.5135307051  SOLV      1793            0.0000000000
      5492      1804  TIP3      H1             11.3827207156      -27.9555011523      -17.9512330325  SOLV      1793            0.0000000000
      5493      1804  TIP3      H2             11.2440072464      -27.4487263871      -19.3716988038  SOLV      1793            0.0000000000
      5494      1805  TIP3      OH2             3.0921303112      -29.1378196182        2.6450329974  SOLV      1794            0.0000000000
      5495      1805  TIP3      H1              3.2128279464      -30.0990036125        2.7473305004  SOLV      1794            0.0000000000
      5496      1805  TIP3      H2              2.2265684071      -29.0972360213        2.1815205457  SOLV      1794            0.0000000000
      5497      1806  TIP3      OH2             2.9142333343      -32.7116802126      -15.3626265829  SOLV      1795            0.0000000000
      5498      1806  TIP3      H1              3.4766503033      -33.0308546053      -14.6304602125  SOLV      1795            0.0000000000
      5499      1806  TIP3      H2              3.5839826806      -32.6594475686      -16.0808215206  SOLV      1795            0.0000000000
      5500      1807  TIP3      OH2             9.1522275455      -28.2540485732        0.3975379521  SOLV      1796            0.0000000000
      5501      1807  TIP3      H1              8.7416732411      -28.0473344372       -0.4673945040  SOLV      1796            0.0000000000
      5502      1807  TIP3      H2              9.4549299379      -29.1794149480        0.2762466477  SOLV      1796            0.0000000000
      5503      1808  TIP3      OH2             7.9953752494      -30.6504763169      -17.3039887585  SOLV      1797            0.0000000000
      5504      1808  TIP3      H1              8.0301414020      -30.5240106775      -16.3347144337  SOLV      1797            0.0000000000
      5505      1808  TIP3      H2              8.0704148343      -31.6267859874      -17.3608089751  SOLV      1797            0.0000000000
      5506      1809  TIP3      OH2            14.0788815484      -28.1374824386       -3.5179732985  SOLV      1798            0.0000000000
      5507      1809  TIP3      H1             14.8531624024      -27.7490636093       -3.9700629169  SOLV      1798            0.0000000000
      5508      1809  TIP3      H2             13.4008625703      -27.4599314158       -3.7088458218  SOLV      1798            0.0000000000
      5509      1810  TIP3      OH2             4.3469439887      -31.8055949290        2.4946199624  SOLV      1799            0.0000000000
      5510      1810  TIP3      H1              5.1790757330      -32.1460481441        2.1419226768  SOLV      1799            0.0000000000
      5511      1810  TIP3      H2              4.6298028138      -31.4369042944        3.3575674956  SOLV      1799            0.0000000000
      5512      1811  TIP3      OH2             4.8829141203      -33.5861769763      -13.2316809366  SOLV      1800            0.0000000000
      5513      1811  TIP3      H1              4.6814179729      -33.9986857307      -12.3756860312  SOLV      1800            0.0000000000
      5514      1811  TIP3      H2              5.3031163206      -34.3281833391      -13.7179686093  SOLV      1800            0.0000000000
      5515      1812  TIP3      OH2             7.7067284691      -32.9286596141       -0.8643782900  SOLV      1801            0.0000000000
      5516      1812  TIP3      H1              6.8973547666      -32.3750223754       -0.9043283207  SOLV      1801            0.0000000000
      5517      1812  TIP3      H2              8.2009083046      -32.6176426507       -1.6588353123  SOLV      1801            0.0000000000
      5518      1813  TIP3      OH2             5.9579156767      -35.6115675946      -14.7832276270  SOLV      1802            0.0000000000
      5519      1813  TIP3      H1              5.7279664293      -35.5805927767      -15.7349839503  SOLV      1802            0.0000000000
      5520      1813  TIP3      H2              6.9373505389      -35.6413711948      -14.8322438701  SOLV      1802            0.0000000000
      5521      1814  TIP3      OH2            12.8623949005      -28.9210589314        0.4213674376  SOLV      1803            0.0000000000
      5522      1814  TIP3      H1             13.5520769855      -29.3346268136       -0.1153480036  SOLV      1803            0.0000000000
      5523      1814  TIP3      H2             12.7420383759      -29.5788992531        1.1304734100  SOLV      1803            0.0000000000
      5524      1815  TIP3      OH2             8.7736414422      -35.0077594197        0.4867488537  SOLV      1804            0.0000000000
      5525      1815  TIP3      H1              8.7724306708      -35.8407044567       -0.0066093942  SOLV      1804            0.0000000000
      5526      1815  TIP3      H2              8.3610374592      -34.3803432459       -0.1511821656  SOLV      1804            0.0000000000
      5527      1816  TIP3      OH2             9.1634354902      -31.8791503862       -2.8512680691  SOLV      1805            0.0000000000
      5528      1816  TIP3      H1             10.0154046166      -31.7158643351       -3.2766857459  SOLV      1805            0.0000000000
      5529      1816  TIP3      H2              8.5782090244      -31.2420523599       -3.3139673565  SOLV      1805            0.0000000000
      5530      1817  TIP3      OH2            14.9119720372      -32.1479594390        0.8952315330  SOLV      1806            0.0000000000
      5531      1817  TIP3      H1             15.2922384442      -32.8902007345        1.4119196795  SOLV      1806            0.0000000000
      5532      1817  TIP3      H2             15.6990230749      -31.7769144457        0.4720598987  SOLV      1806            0.0000000000
      5533      1818  TIP3      OH2            15.3728870184      -29.6017995404       -1.6593758847  SOLV      1807            0.0000000000
      5534      1818  TIP3      H1             14.7973530855      -29.0547818942       -2.2450062483  SOLV      1807            0.0000000000
      5535      1818  TIP3      H2             16.2511855113      -29.3860167392       -2.0464597668  SOLV      1807            0.0000000000
      5536      1819  TIP3      OH2             7.5246843696      -33.7252233326        2.6944141712  SOLV      1808            0.0000000000
      5537      1819  TIP3      H1              6.7834275240      -34.3562886387        2.7602071503  SOLV      1808            0.0000000000
      5538      1819  TIP3      H2              7.9209975377      -33.9904713042        1.8406206967  SOLV      1808            0.0000000000
      5539      1820  TIP3      OH2            11.3902957732      -34.2510678503        1.0718008318  SOLV      1809            0.0000000000
      5540      1820  TIP3      H1             11.5837138721      -34.8169839666        1.8450505319  SOLV      1809            0.0000000000
      5541      1820  TIP3      H2             10.4510491012      -34.4844393770        0.9075536868  SOLV      1809            0.0000000000
      5542      1821  TIP3      OH2            13.9320237069      -35.0802324686       -0.0929056908  SOLV      1810            0.0000000000
      5543      1821  TIP3      H1             13.1794983384      -34.9650642726        0.5102803673  SOLV      1810            0.0000000000
      5544      1821  TIP3      H2             14.5547532412      -35.5961921362        0.4440612375  SOLV      1810            0.0000000000
      5545      1822  TIP3      OH2             5.8731179346      -35.8950793830        3.2267444610  SOLV      1811            0.0000000000
      5546      1822  TIP3      H1              6.1422719022      -36.6970964528        2.7413229334  SOLV      1811            0.0000000000
      5547      1822  TIP3      H2              6.4821940170      -35.9252146368        3.9775215489  SOLV      1811            0.0000000000
      5548      1823  TIP3      OH2             3.9802964794      -25.1537528110      -15.8172552600  SOLV      1812            0.0000000000
      5549      1823  TIP3      H1              4.9461707909      -25.2739583336      -15.9081434834  SOLV      1812            0.0000000000
      5550      1823  TIP3      H2              3.8285322288      -24.5480943246      -16.5699183011  SOLV      1812            0.0000000000
      5551      1824  TIP3      OH2            -1.1537701534      -31.1422832863      -13.7713063595  SOLV      1813            0.0000000000
      5552      1824  TIP3      H1             -0.1817225439      -31.0044103193      -13.7789035741  SOLV      1813            0.0000000000
      5553      1824  TIP3      H2             -1.2207681815      -32.0780687673      -14.0611839238  SOLV      1813            0.0000000000
      5554      1825  TIP3      OH2            -1.9432903135      -25.1237947637       -9.4216557305  SOLV      1814            0.0000000000
      5555      1825  TIP3      H1             -2.6210918440      -25.7122868974       -9.8204186305  SOLV      1814            0.0000000000
      5556      1825  TIP3      H2             -1.5287452716      -25.7349985058       -8.7765722335  SOLV      1814            0.0000000000
      5557      1826  TIP3      OH2            -0.6185740187      -26.7014821442       -7.5684680794  SOLV      1815            0.0000000000
      5558      1826  TIP3      H1             -0.7869582503      -27.3523450013       -6.8647142715  SOLV      1815            0.0000000000
      5559      1826  TIP3      H2             -0.1012301536      -26.0447704017       -7.0656108751  SOLV      1815            0.0000000000
      5560      1827  TIP3      OH2            16.6386074539      -22.6242072265       -9.5309669027  SOLV      1816            0.0000000000
      5561      1827  TIP3      H1             16.9082813351      -22.2577582049       -8.6708800947  SOLV      1816            0.0000000000
      5562      1827  TIP3      H2             17.2817294001      -22.2251737977      -10.1373658705  SOLV      1816            0.0000000000
      5563      1828  TIP3      OH2            16.8730322121      -22.4080668186       -6.6912258287  SOLV      1817            0.0000000000
      5564      1828  TIP3      H1             16.4382297574      -23.2849568436       -6.7542103807  SOLV      1817            0.0000000000
      5565      1828  TIP3      H2             17.6735415701      -22.6555157559       -6.2038214174  SOLV      1817            0.0000000000
      5566      1829  TIP3      OH2            17.3962400133      -25.5998446652       -0.9481113027  SOLV      1818            0.0000000000
      5567      1829  TIP3      H1             16.6708363152      -25.5136108626       -0.2982753496  SOLV      1818            0.0000000000
      5568      1829  TIP3      H2             17.8239014187      -24.7244077562       -0.8821534724  SOLV      1818            0.0000000000
      5569      1830  TIP3      OH2            15.5937612727      -30.5405773729      -14.8367688135  SOLV      1819            0.0000000000
      5570      1830  TIP3      H1             16.2157647780      -29.8468925951      -15.1432098789  SOLV      1819            0.0000000000
      5571      1830  TIP3      H2             16.0357808404      -30.8421604137      -14.0118682472  SOLV      1819            0.0000000000
      5572      1831  TIP3      OH2            16.8272433073      -31.8749411562      -12.7939543788  SOLV      1820            0.0000000000
      5573      1831  TIP3      H1             16.1787358945      -32.2581199643      -12.1636075725  SOLV      1820            0.0000000000
      5574      1831  TIP3      H2             17.5060435488      -31.4894139749      -12.1982096523  SOLV      1820            0.0000000000
      5575      1832  TIP3      OH2            17.3878862450      -27.8832590702       -8.4646051093  SOLV      1821            0.0000000000
      5576      1832  TIP3      H1             17.9122811638      -28.5781465077       -8.9126805127  SOLV      1821            0.0000000000
      5577      1832  TIP3      H2             17.3886184911      -27.1632980716       -9.1265609704  SOLV      1821            0.0000000000
      5578      1833  TIP3      OH2            15.6334582221      -24.9132196458       -6.5172421226  SOLV      1822            0.0000000000
      5579      1833  TIP3      H1             14.8992363386      -24.4882082744       -6.0353897897  SOLV      1822            0.0000000000
      5580      1833  TIP3      H2             15.1644926279      -25.3594907151       -7.2553141227  SOLV      1822            0.0000000000
      5581      1834  TIP3      OH2            15.9359548389      -32.7794023042      -16.3751263174  SOLV      1823            0.0000000000
      5582      1834  TIP3      H1             15.2015226626      -32.3654000970      -16.8479039760  SOLV      1823            0.0000000000
      5583      1834  TIP3      H2             15.9968703823      -32.1296701565      -15.6411313963  SOLV      1823            0.0000000000
      5584      1835  TIP3      OH2            14.9385508002      -33.2575512484      -11.3139349993  SOLV      1824            0.0000000000
      5585      1835  TIP3      H1             14.8882044113      -34.2254217556      -11.3147687474  SOLV      1824            0.0000000000
      5586      1835  TIP3      H2             14.7519804804      -33.0580757709      -10.3663494023  SOLV      1824            0.0000000000
      5587      1836  TIP3      OH2             1.1798709367      -32.5456210508       -3.8372571521  SOLV      1825            0.0000000000
      5588      1836  TIP3      H1              1.1656617613      -32.8750936798       -4.7599068865  SOLV      1825            0.0000000000
      5589      1836  TIP3      H2              2.1530626631      -32.5167697546       -3.6720541805  SOLV      1825            0.0000000000
      5590      1837  TIP3      OH2            17.8273068212      -28.9502269533       -2.7432125117  SOLV      1826            0.0000000000
      5591      1837  TIP3      H1             18.5237052813      -29.6350794222       -2.8647450052  SOLV      1826            0.0000000000
      5592      1837  TIP3      H2             18.0608657294      -28.3024284907       -3.4265402078  SOLV      1826            0.0000000000
      5593      1838  TIP3      OH2            19.6142478930      -30.9543541294       -2.6401297447  SOLV      1827            0.0000000000
      5594      1838  TIP3      H1             18.8826335466      -31.3859353251       -2.1527489869  SOLV      1827            0.0000000000
      5595      1838  TIP3      H2             20.3186380420      -31.6232353387       -2.4965294620  SOLV      1827            0.0000000000
      5596      1839  TIP3      OH2            14.9181657222      -36.1810450549      -12.4241200740  SOLV      1828            0.0000000000
      5597      1839  TIP3      H1             15.3220215703      -37.0166186879      -12.1379224018  SOLV      1828            0.0000000000
      5598      1839  TIP3      H2             15.6347368091      -35.7853552770      -12.9450928922  SOLV      1828            0.0000000000
      5599      1840  TIP3      OH2            16.4015683941      -34.0733975177       -7.4761547971  SOLV      1829            0.0000000000
      5600      1840  TIP3      H1             17.2877643811      -33.9022154117       -7.8556861060  SOLV      1829            0.0000000000
      5601      1840  TIP3      H2             16.5601637167      -33.8387573428       -6.5419601662  SOLV      1829            0.0000000000
      5602      1841  TIP3      OH2            17.0573953206      -32.7811795079       -5.1039814990  SOLV      1830            0.0000000000
      5603      1841  TIP3      H1             16.2994863985      -32.4435962354       -4.5870415273  SOLV      1830            0.0000000000
      5604      1841  TIP3      H2             17.3870268673      -31.9758013170       -5.5554624202  SOLV      1830            0.0000000000
      5605      1842  TIP3      OH2             3.1522133884      -35.7398290340        2.7970325558  SOLV      1831            0.0000000000
      5606      1842  TIP3      H1              4.1327050493      -35.7254548516        2.8266713637  SOLV      1831            0.0000000000
      5607      1842  TIP3      H2              2.9572143507      -36.6030669722        3.1857245485  SOLV      1831            0.0000000000
      5608      1843  TIP3      OH2             1.0455803636      -36.1828586931       -3.0765743794  SOLV      1832            0.0000000000
      5609      1843  TIP3      H1              1.5399142406      -36.0377771861       -3.9151101376  SOLV      1832            0.0000000000
      5610      1843  TIP3      H2              1.2743625290      -35.3795545537       -2.5864283123  SOLV      1832            0.0000000000
      5611      1844  TIP3      OH2            12.4389927596      -23.9247209786      -13.0010464261  SOLV      1833            0.0000000000
      5612      1844  TIP3      H1             12.9671751638      -23.9892327004      -13.8252180519  SOLV      1833            0.0000000000
      5613      1844  TIP3      H2             12.9324243737      -23.2507893912      -12.5037096953  SOLV      1833            0.0000000000
      5614      1845  TIP3      OH2             3.4549294890      -25.8731786634        0.8318081410  SOLV      1834            0.0000000000
      5615      1845  TIP3      H1              2.5184549673      -26.0986549448        0.6718546505  SOLV      1834            0.0000000000
      5616      1845  TIP3      H2              3.5461505887      -26.0670321976        1.7720457025  SOLV      1834            0.0000000000
      5617      1846  TIP3      OH2             5.2795243415      -25.5149358087       -3.6697363682  SOLV      1835            0.0000000000
      5618      1846  TIP3      H1              4.7883465365      -24.7625962915       -4.0624114166  SOLV      1835            0.0000000000
      5619      1846  TIP3      H2              6.1328576349      -25.3733594003       -4.1289653108  SOLV      1835            0.0000000000
      5620      1847  TIP3      OH2             9.6508468032      -23.1454880636       -2.2809383648  SOLV      1836            0.0000000000
      5621      1847  TIP3      H1             10.0841378409      -23.1280251107       -1.4035287414  SOLV      1836            0.0000000000
      5622      1847  TIP3      H2             10.2895118047      -22.6205177599       -2.8114449804  SOLV      1836            0.0000000000
      5623      1848  TIP3      OH2            11.4328007216      -21.5905754062       -3.6562522995  SOLV      1837            0.0000000000
      5624      1848  TIP3      H1             12.1147426933      -22.0646483748       -4.1536036407  SOLV      1837            0.0000000000
      5625      1848  TIP3      H2             11.9843093723      -21.0218264604       -3.0767498790  SOLV      1837            0.0000000000
      5626      1849  TIP3      OH2             1.9883564642      -23.0134183502       -3.3990971414  SOLV      1838            0.0000000000
      5627      1849  TIP3      H1              1.0818480255      -22.7137806966       -3.6381184317  SOLV      1838            0.0000000000
      5628      1849  TIP3      H2              2.1352492073      -22.4825361699       -2.6035598130  SOLV      1838            0.0000000000
      5629      1850  TIP3      OH2             4.3552328872      -23.2028460048       -4.8300517201  SOLV      1839            0.0000000000
      5630      1850  TIP3      H1              3.4764521604      -23.0850252931       -4.4053388611  SOLV      1839            0.0000000000
      5631      1850  TIP3      H2              4.1774406820      -22.8759030134       -5.7347808471  SOLV      1839            0.0000000000
      5632      1851  TIP3      OH2             8.6144760057      -22.9518875811       -6.8609645191  SOLV      1840            0.0000000000
      5633      1851  TIP3      H1              7.9127182963      -22.7808853513       -7.5166958343  SOLV      1840            0.0000000000
      5634      1851  TIP3      H2              8.7251269757      -22.0646242328       -6.4586381459  SOLV      1840            0.0000000000
      5635      1852  TIP3      OH2            11.3141398112      -23.5572680854       -6.3130601042  SOLV      1841            0.0000000000
      5636      1852  TIP3      H1             10.3806623092      -23.3601430810       -6.5270509761  SOLV      1841            0.0000000000
      5637      1852  TIP3      H2             11.7780368663      -22.8504887828       -6.7942610390  SOLV      1841            0.0000000000
      5638      1853  TIP3      OH2            13.3286761675      -21.6694954593       -7.2312934504  SOLV      1842            0.0000000000
      5639      1853  TIP3      H1             13.2118005774      -20.8145436260       -7.7009448723  SOLV      1842            0.0000000000
      5640      1853  TIP3      H2             13.6257011961      -22.2536968821       -7.9641056501  SOLV      1842            0.0000000000
      5641      1854  TIP3      OH2             1.1207264873      -25.0741319863       -6.0246785479  SOLV      1843            0.0000000000
      5642      1854  TIP3      H1              1.3595178294      -25.3564182522       -5.1166536506  SOLV      1843            0.0000000000
      5643      1854  TIP3      H2              1.8524538046      -25.5075450728       -6.5188529877  SOLV      1843            0.0000000000
      5644      1855  TIP3      OH2             3.0878460264      -26.3445000096       -7.3978647823  SOLV      1844            0.0000000000
      5645      1855  TIP3      H1              3.2281344643      -27.1782613085       -6.8876277983  SOLV      1844            0.0000000000
      5646      1855  TIP3      H2              4.0017817558      -25.9886738051       -7.4243736069  SOLV      1844            0.0000000000
      5647      1856  TIP3      OH2             5.7465307129      -25.4454339622       -7.3265917768  SOLV      1845            0.0000000000
      5648      1856  TIP3      H1              6.0495945966      -26.3708042879       -7.4057918486  SOLV      1845            0.0000000000
      5649      1856  TIP3      H2              6.2331000579      -25.1861546869       -6.5207388791  SOLV      1845            0.0000000000
      5650      1857  TIP3      OH2            -1.0262253162      -27.3184839547      -12.0755986487  SOLV      1846            0.0000000000
      5651      1857  TIP3      H1             -1.8977429200      -27.5987618624      -12.4059114036  SOLV      1846            0.0000000000
      5652      1857  TIP3      H2             -1.0328131043      -26.3880624140      -12.3566238175  SOLV      1846            0.0000000000
      5653      1858  TIP3      OH2             6.6866566779      -25.5291660939      -16.2366702358  SOLV      1847            0.0000000000
      5654      1858  TIP3      H1              7.5627000048      -25.2760892715      -16.5985763696  SOLV      1847            0.0000000000
      5655      1858  TIP3      H2              6.4864133373      -26.2779711146      -16.8441269202  SOLV      1847            0.0000000000
      5656      1859  TIP3      OH2            13.9110210428      -24.2467732180      -15.3140891719  SOLV      1848            0.0000000000
      5657      1859  TIP3      H1             13.8150797142      -25.2217508013      -15.4269011867  SOLV      1848            0.0000000000
      5658      1859  TIP3      H2             13.4541195023      -23.9285102260      -16.1200420987  SOLV      1848            0.0000000000
      5659      1860  TIP3      OH2            16.0929817655      -22.8471601997       -3.4029501089  SOLV      1849            0.0000000000
      5660      1860  TIP3      H1             15.3480371800      -23.1449732289       -3.9667290079  SOLV      1849            0.0000000000
      5661      1860  TIP3      H2             15.9310622586      -21.8824082963       -3.4028602839  SOLV      1849            0.0000000000
      5662      1861  TIP3      OH2            28.8338197845      -28.9837350434      -15.7808313075  SOLV      1850            0.0000000000
      5663      1861  TIP3      H1             28.4620135118      -28.1670280141      -16.1808073482  SOLV      1850            0.0000000000
      5664      1861  TIP3      H2             28.2328576801      -29.6496174007      -16.1493262382  SOLV      1850            0.0000000000
      5665      1862  TIP3      OH2            28.2211876533      -29.0156247330      -11.8348401098  SOLV      1851            0.0000000000
      5666      1862  TIP3      H1             28.8552347761      -29.2375618884      -11.1229063003  SOLV      1851            0.0000000000
      5667      1862  TIP3      H2             28.3692317330      -29.7482590993      -12.4459484044  SOLV      1851            0.0000000000
      5668      1863  TIP3      OH2            21.7676130598      -30.1141501666       -8.2953178616  SOLV      1852            0.0000000000
      5669      1863  TIP3      H1             22.0749723655      -30.8530410795       -7.7315997923  SOLV      1852            0.0000000000
      5670      1863  TIP3      H2             22.6159287221      -29.7030242817       -8.5161560573  SOLV      1852            0.0000000000
      5671      1864  TIP3      OH2            21.5532373808      -26.0845480555      -11.1348111088  SOLV      1853            0.0000000000
      5672      1864  TIP3      H1             21.4747435797      -27.0599867300      -11.1139888805  SOLV      1853            0.0000000000
      5673      1864  TIP3      H2             22.5208996825      -25.9825766727      -11.2195690348  SOLV      1853            0.0000000000
      5674      1865  TIP3      OH2            18.5549890536      -34.1418383744      -13.2580679769  SOLV      1854            0.0000000000
      5675      1865  TIP3      H1             18.2354065855      -33.2706739548      -12.9665896350  SOLV      1854            0.0000000000
      5676      1865  TIP3      H2             17.7531402551      -34.4770426701      -13.7008248049  SOLV      1854            0.0000000000
      5677      1866  TIP3      OH2            19.1690401718      -31.1510542913      -11.5383933051  SOLV      1855            0.0000000000
      5678      1866  TIP3      H1             19.6465757111      -31.9452305444      -11.2015958701  SOLV      1855            0.0000000000
      5679      1866  TIP3      H2             19.8927780302      -30.6427229197      -11.9355637053  SOLV      1855            0.0000000000
      5680      1867  TIP3      OH2            27.7010117730      -21.6582660834      -14.9832093730  SOLV      1856            0.0000000000
      5681      1867  TIP3      H1             28.4207775048      -22.2334889692      -15.2833308504  SOLV      1856            0.0000000000
      5682      1867  TIP3      H2             27.6978990793      -21.8357664526      -14.0335368136  SOLV      1856            0.0000000000
      5683      1868  TIP3      OH2            26.7322202357      -26.7729151043      -11.4301436461  SOLV      1857            0.0000000000
      5684      1868  TIP3      H1             27.1579824353      -27.6299724183      -11.6764203655  SOLV      1857            0.0000000000
      5685      1868  TIP3      H2             27.5518017965      -26.2522326002      -11.2997160229  SOLV      1857            0.0000000000
      5686      1869  TIP3      OH2            24.1967049132      -35.2244834878      -11.4876158602  SOLV      1858            0.0000000000
      5687      1869  TIP3      H1             23.9830790629      -34.5714684354      -12.1876887855  SOLV      1858            0.0000000000
      5688      1869  TIP3      H2             23.7386399404      -36.0161027228      -11.8042737691  SOLV      1858            0.0000000000
      5689      1870  TIP3      OH2            20.5431798735      -33.2546422540      -10.5551273402  SOLV      1859            0.0000000000
      5690      1870  TIP3      H1             21.3652053483      -33.3742847719      -10.0185481431  SOLV      1859            0.0000000000
      5691      1870  TIP3      H2             20.8017907720      -33.7981446931      -11.3272722053  SOLV      1859            0.0000000000
      5692      1871  TIP3      OH2            25.0739406338      -31.2358153945      -12.4396574224  SOLV      1860            0.0000000000
      5693      1871  TIP3      H1             26.0267235042      -31.4706551953      -12.3782219476  SOLV      1860            0.0000000000
      5694      1871  TIP3      H2             24.6898275547      -32.0792848698      -12.7575759906  SOLV      1860            0.0000000000
      5695      1872  TIP3      OH2            27.7743497761      -26.8238526465      -17.1134641060  SOLV      1861            0.0000000000
      5696      1872  TIP3      H1             27.4028636028      -26.9996911394      -18.0008605034  SOLV      1861            0.0000000000
      5697      1872  TIP3      H2             27.2488992064      -26.0390487162      -16.8543400890  SOLV      1861            0.0000000000
      5698      1873  TIP3      OH2            25.3665441405      -27.6659814005       -9.2594497401  SOLV      1862            0.0000000000
      5699      1873  TIP3      H1             24.7921538481      -26.9482587787       -8.9173419367  SOLV      1862            0.0000000000
      5700      1873  TIP3      H2             25.8071749603      -27.2203252924      -10.0177162281  SOLV      1862            0.0000000000
      5701      1874  TIP3      OH2            22.8808789287      -33.8892096414       -9.4669098615  SOLV      1863            0.0000000000
      5702      1874  TIP3      H1             23.6402122109      -33.3713598232       -9.1428037904  SOLV      1863            0.0000000000
      5703      1874  TIP3      H2             23.3078621834      -34.5130130515      -10.0855309139  SOLV      1863            0.0000000000
      5704      1875  TIP3      OH2            23.6626000276      -25.6523199906       -8.2653163909  SOLV      1864            0.0000000000
      5705      1875  TIP3      H1             23.4177611275      -24.7799367125       -8.6353854262  SOLV      1864            0.0000000000
      5706      1875  TIP3      H2             22.8580113793      -25.8316399669       -7.7340321261  SOLV      1864            0.0000000000
      5707      1876  TIP3      OH2            17.5109799340      -28.7903463780      -15.9157101723  SOLV      1865            0.0000000000
      5708      1876  TIP3      H1             17.1370400046      -28.4655397462      -16.7548065193  SOLV      1865            0.0000000000
      5709      1876  TIP3      H2             17.8450405985      -27.9497095814      -15.5276755649  SOLV      1865            0.0000000000
      5710      1877  TIP3      OH2            29.2353667338      -23.0173104890      -17.0400718381  SOLV      1866            0.0000000000
      5711      1877  TIP3      H1             29.5466969972      -23.8938508927      -16.7831631022  SOLV      1866            0.0000000000
      5712      1877  TIP3      H2             29.9225814383      -22.4537968686      -16.6028770879  SOLV      1866            0.0000000000
      5713      1878  TIP3      OH2            27.2059933411      -30.4805965403      -17.6288024821  SOLV      1867            0.0000000000
      5714      1878  TIP3      H1             26.3264624259      -30.0526350232      -17.6125639809  SOLV      1867            0.0000000000
      5715      1878  TIP3      H2             27.5485160714      -30.1520179142      -18.4674372441  SOLV      1867            0.0000000000
      5716      1879  TIP3      OH2            22.9643960662      -29.8143103962      -13.5676591687  SOLV      1868            0.0000000000
      5717      1879  TIP3      H1             22.6073782318      -30.3909437312      -14.2725566520  SOLV      1868            0.0000000000
      5718      1879  TIP3      H2             23.7278295994      -30.3364721601      -13.2369336203  SOLV      1868            0.0000000000
      5719      1880  TIP3      OH2            24.2136819345      -25.7078592211      -12.1107286968  SOLV      1869            0.0000000000
      5720      1880  TIP3      H1             24.0866903726      -26.0135345772      -13.0211929743  SOLV      1869            0.0000000000
      5721      1880  TIP3      H2             25.1072479465      -26.0624946729      -11.9035221168  SOLV      1869            0.0000000000
      5722      1881  TIP3      OH2            24.1990676004      -30.0435470490      -10.0546466884  SOLV      1870            0.0000000000
      5723      1881  TIP3      H1             24.5865768265      -30.3608444461      -10.9009084068  SOLV      1870            0.0000000000
      5724      1881  TIP3      H2             24.7169947560      -29.2270070796       -9.8831183766  SOLV      1870            0.0000000000
      5725      1882  TIP3      OH2            29.2848522827      -23.6879727248      -12.4514631109  SOLV      1871            0.0000000000
      5726      1882  TIP3      H1             29.4371604777      -22.8716772202      -11.9455420627  SOLV      1871            0.0000000000
      5727      1882  TIP3      H2             29.3289354378      -24.3860815660      -11.7738140941  SOLV      1871            0.0000000000
      5728      1883  TIP3      OH2            25.6899854680      -24.5296052626       -6.7762947542  SOLV      1872            0.0000000000
      5729      1883  TIP3      H1             25.0617350692      -23.9071295919       -6.3498250223  SOLV      1872            0.0000000000
      5730      1883  TIP3      H2             25.0670985515      -25.0549335184       -7.3209149729  SOLV      1872            0.0000000000
      5731      1884  TIP3      OH2            23.2898362276      -28.9967906646       -5.6737059319  SOLV      1873            0.0000000000
      5732      1884  TIP3      H1             23.3057248178      -28.0828211487       -5.3264436600  SOLV      1873            0.0000000000
      5733      1884  TIP3      H2             22.3287751769      -29.1754973601       -5.6550396042  SOLV      1873            0.0000000000
      5734      1885  TIP3      OH2            26.4811726837      -24.3732863700      -16.8242293968  SOLV      1874            0.0000000000
      5735      1885  TIP3      H1             27.1230663876      -23.6979731668      -16.5694244177  SOLV      1874            0.0000000000
      5736      1885  TIP3      H2             25.7690286815      -23.8439722342      -17.2057034272  SOLV      1874            0.0000000000
      5737      1886  TIP3      OH2            23.6159447113      -22.8649304847       -5.9497726911  SOLV      1875            0.0000000000
      5738      1886  TIP3      H1             23.2866059341      -22.7938297203       -6.8669084524  SOLV      1875            0.0000000000
      5739      1886  TIP3      H2             22.7941350734      -23.0649256679       -5.4493459134  SOLV      1875            0.0000000000
      5740      1887  TIP3      OH2            21.6601521707      -31.2788488022      -15.6958419494  SOLV      1876            0.0000000000
      5741      1887  TIP3      H1             20.8322797740      -30.9558681377      -16.1115370571  SOLV      1876            0.0000000000
      5742      1887  TIP3      H2             21.4848260030      -32.2215492189      -15.5740695262  SOLV      1876            0.0000000000
      5743      1888  TIP3      OH2            19.3984422069      -27.5014136048       -6.4719775131  SOLV      1877            0.0000000000
      5744      1888  TIP3      H1             18.7379257035      -27.7177657527       -7.1611533787  SOLV      1877            0.0000000000
      5745      1888  TIP3      H2             19.7902358883      -28.3750733421       -6.2627466047  SOLV      1877            0.0000000000
      5746      1889  TIP3      OH2            17.9668440565      -25.5952200227      -10.1618241641  SOLV      1878            0.0000000000
      5747      1889  TIP3      H1             18.9271657326      -25.6535891139      -10.2622700154  SOLV      1878            0.0000000000
      5748      1889  TIP3      H2             17.8833777752      -24.8106792033       -9.5974301629  SOLV      1878            0.0000000000
      5749      1890  TIP3      OH2            27.6654612077      -23.2921695728       -8.1928416298  SOLV      1879            0.0000000000
      5750      1890  TIP3      H1             27.6247646040      -22.3532696830       -7.9094381477  SOLV      1879            0.0000000000
      5751      1890  TIP3      H2             26.9277858785      -23.6728552934       -7.6677835693  SOLV      1879            0.0000000000
      5752      1891  TIP3      OH2            25.2973418870      -21.9376095221      -18.7359013393  SOLV      1880            0.0000000000
      5753      1891  TIP3      H1             24.8062037028      -22.0570240597      -19.5667530648  SOLV      1880            0.0000000000
      5754      1891  TIP3      H2             24.9795329208      -21.0631332937      -18.4336877336  SOLV      1880            0.0000000000
      5755      1892  TIP3      OH2            19.6551150783      -23.4599542279      -14.8409424082  SOLV      1881            0.0000000000
      5756      1892  TIP3      H1             20.1563371984      -23.5290426696      -13.9981791593  SOLV      1881            0.0000000000
      5757      1892  TIP3      H2             19.0919933286      -24.2475608299      -14.7834380782  SOLV      1881            0.0000000000
      5758      1893  TIP3      OH2            27.3545879459      -23.0431985830      -22.2445209271  SOLV      1882            0.0000000000
      5759      1893  TIP3      H1             28.0741971141      -23.6207808261      -22.5245369772  SOLV      1882            0.0000000000
      5760      1893  TIP3      H2             27.5796085880      -22.9141158362      -21.2980425395  SOLV      1882            0.0000000000
      5761      1894  TIP3      OH2            27.7764091275      -22.6710646252      -19.5269921694  SOLV      1883            0.0000000000
      5762      1894  TIP3      H1             26.8817187820      -22.4983095741      -19.1535713173  SOLV      1883            0.0000000000
      5763      1894  TIP3      H2             28.2780234925      -22.8688308219      -18.7082759650  SOLV      1883            0.0000000000
      5764      1895  TIP3      OH2            21.4420006774      -25.6748275725       -6.6407079289  SOLV      1884            0.0000000000
      5765      1895  TIP3      H1             21.9407030201      -25.8560708215       -5.8196578025  SOLV      1884            0.0000000000
      5766      1895  TIP3      H2             20.6993273124      -26.3103427183       -6.5701203265  SOLV      1884            0.0000000000
      5767      1896  TIP3      OH2            24.8837002933      -32.2436555761       -8.5494810266  SOLV      1885            0.0000000000
      5768      1896  TIP3      H1             24.2945582354      -32.0831237921       -7.7801080976  SOLV      1885            0.0000000000
      5769      1896  TIP3      H2             24.6853342820      -31.4515848706       -9.0938615802  SOLV      1885            0.0000000000
      5770      1897  TIP3      OH2            23.4966795424      -33.3596271340      -13.3470878481  SOLV      1886            0.0000000000
      5771      1897  TIP3      H1             22.5965998030      -33.7300233303      -13.2509244244  SOLV      1886            0.0000000000
      5772      1897  TIP3      H2             23.7255441237      -33.6827136130      -14.2524301505  SOLV      1886            0.0000000000
      5773      1898  TIP3      OH2            28.4138312923      -32.7857885788      -16.4381053164  SOLV      1887            0.0000000000
      5774      1898  TIP3      H1             28.0093555847      -31.9826258931      -16.8173844562  SOLV      1887            0.0000000000
      5775      1898  TIP3      H2             29.3512443424      -32.6715552065      -16.6523261321  SOLV      1887            0.0000000000
      5776      1899  TIP3      OH2            30.2455890223      -29.7442015947       -5.5670239359  SOLV      1888            0.0000000000
      5777      1899  TIP3      H1             29.9416509947      -30.3542253595       -4.8529894111  SOLV      1888            0.0000000000
      5778      1899  TIP3      H2             31.0573638356      -29.3826898747       -5.1962458745  SOLV      1888            0.0000000000
      5779      1900  TIP3      OH2            23.0032590288      -31.8860296338       -6.5833369781  SOLV      1889            0.0000000000
      5780      1900  TIP3      H1             23.2590133577      -31.2596731253       -5.8913926160  SOLV      1889            0.0000000000
      5781      1900  TIP3      H2             22.8225852961      -32.6988022598       -6.0556752184  SOLV      1889            0.0000000000
      5782      1901  TIP3      OH2            18.7937957010      -36.7491387376      -15.4212468243  SOLV      1890            0.0000000000
      5783      1901  TIP3      H1             19.2291607704      -36.2881603326      -16.1575075030  SOLV      1890            0.0000000000
      5784      1901  TIP3      H2             18.3053223967      -36.0322457964      -14.9930025305  SOLV      1890            0.0000000000
      5785      1902  TIP3      OH2            29.7812641508      -29.8388469720       -9.7175093099  SOLV      1891            0.0000000000
      5786      1902  TIP3      H1             30.6604028391      -29.9378113405      -10.1236592033  SOLV      1891            0.0000000000
      5787      1902  TIP3      H2             29.7980843221      -30.5117240735       -9.0079846599  SOLV      1891            0.0000000000
      5788      1903  TIP3      OH2            26.5733223770      -34.9442876516      -13.0097370179  SOLV      1892            0.0000000000
      5789      1903  TIP3      H1             25.9806893869      -34.8298001048      -12.2471915987  SOLV      1892            0.0000000000
      5790      1903  TIP3      H2             27.4553245132      -34.8060602192      -12.6016060469  SOLV      1892            0.0000000000
      5791      1904  TIP3      OH2            21.1551947818      -34.7910953134      -12.7762411172  SOLV      1893            0.0000000000
      5792      1904  TIP3      H1             20.2273744278      -34.6108041252      -13.0528672473  SOLV      1893            0.0000000000
      5793      1904  TIP3      H2             21.1251506069      -35.7479083118      -12.5889669901  SOLV      1893            0.0000000000
      5794      1905  TIP3      OH2            23.9877474928      -34.4439312589      -15.7476258586  SOLV      1894            0.0000000000
      5795      1905  TIP3      H1             24.9505664401      -34.6505655170      -15.7940576824  SOLV      1894            0.0000000000
      5796      1905  TIP3      H2             23.7204961546      -34.4947432318      -16.6724214103  SOLV      1894            0.0000000000
      5797      1906  TIP3      OH2            21.8411871012      -34.0868987086      -17.8244984720  SOLV      1895            0.0000000000
      5798      1906  TIP3      H1             21.1377982790      -34.7379060796      -17.9463801832  SOLV      1895            0.0000000000
      5799      1906  TIP3      H2             22.4478537170      -34.2769009881      -18.5653077449  SOLV      1895            0.0000000000
      5800      1907  TIP3      OH2            23.0654021980      -26.4579055470       -4.3977691259  SOLV      1896            0.0000000000
      5801      1907  TIP3      H1             23.8734252073      -26.1722698752       -3.9273761490  SOLV      1896            0.0000000000
      5802      1907  TIP3      H2             22.4267310861      -26.4748216469       -3.6593618418  SOLV      1896            0.0000000000
      5803      1908  TIP3      OH2            27.6517910911      -32.1921323967      -11.8863888302  SOLV      1897            0.0000000000
      5804      1908  TIP3      H1             28.3282438590      -32.6809245861      -12.3743456496  SOLV      1897            0.0000000000
      5805      1908  TIP3      H2             27.8654569407      -32.4344798067      -10.9777728691  SOLV      1897            0.0000000000
      5806      1909  TIP3      OH2            27.4170980296      -33.3146121230       -8.3646619725  SOLV      1898            0.0000000000
      5807      1909  TIP3      H1             26.5710034901      -32.8370309915       -8.4962340590  SOLV      1898            0.0000000000
      5808      1909  TIP3      H2             28.0446060763      -32.5815339506       -8.2088691527  SOLV      1898            0.0000000000
      5809      1910  TIP3      OH2            24.7311685653      -29.1563340052      -17.9376603740  SOLV      1899            0.0000000000
      5810      1910  TIP3      H1             24.0018234240      -29.8000041623      -18.0518930895  SOLV      1899            0.0000000000
      5811      1910  TIP3      H2             24.5303764955      -28.7995241850      -17.0357097922  SOLV      1899            0.0000000000
      5812      1911  TIP3      OH2            28.8725565175      -25.8385933616       -7.9819363749  SOLV      1900            0.0000000000
      5813      1911  TIP3      H1             29.0670668872      -25.9976781083       -7.0528886667  SOLV      1900            0.0000000000
      5814      1911  TIP3      H2             28.4361492384      -24.9663643514       -7.9693650879  SOLV      1900            0.0000000000
      5815      1912  TIP3      OH2            21.7171470875      -28.9208428754      -11.2813424909  SOLV      1901            0.0000000000
      5816      1912  TIP3      H1             22.1264265733      -29.1566374875      -12.1405541140  SOLV      1901            0.0000000000
      5817      1912  TIP3      H2             22.3141222311      -29.3757209955      -10.6641523426  SOLV      1901            0.0000000000
      5818      1913  TIP3      OH2            26.3296247389      -27.4497350096      -19.3580276815  SOLV      1902            0.0000000000
      5819      1913  TIP3      H1             25.7882735467      -26.6330357409      -19.4568006962  SOLV      1902            0.0000000000
      5820      1913  TIP3      H2             25.7151846425      -28.0393542050      -18.8741871342  SOLV      1902            0.0000000000
      5821      1914  TIP3      OH2            20.5917692575      -29.6147348289       -5.0909381817  SOLV      1903            0.0000000000
      5822      1914  TIP3      H1             20.7714256916      -29.7683952516       -4.1431363131  SOLV      1903            0.0000000000
      5823      1914  TIP3      H2             19.9340531758      -30.3053589292       -5.2794396751  SOLV      1903            0.0000000000
      5824      1915  TIP3      OH2            27.8159896125      -28.4617056336       -4.9302302120  SOLV      1904            0.0000000000
      5825      1915  TIP3      H1             27.1802542184      -29.0635403517       -5.3546559938  SOLV      1904            0.0000000000
      5826      1915  TIP3      H2             28.6477321097      -28.7399528525       -5.3633523020  SOLV      1904            0.0000000000
      5827      1916  TIP3      OH2            30.3646954716      -22.9897385058       -9.1187447580  SOLV      1905            0.0000000000
      5828      1916  TIP3      H1             29.4465261957      -23.3009100718       -9.0444493004  SOLV      1905            0.0000000000
      5829      1916  TIP3      H2             30.5470189383      -22.7415705741       -8.1935671440  SOLV      1905            0.0000000000
      5830      1917  TIP3      OH2            22.7984910144      -25.7454229231      -14.9933384060  SOLV      1906            0.0000000000
      5831      1917  TIP3      H1             22.7646614171      -24.9363050888      -15.5403249665  SOLV      1906            0.0000000000
      5832      1917  TIP3      H2             21.8626020623      -25.9021284543      -14.8304457530  SOLV      1906            0.0000000000
      5833      1918  TIP3      OH2            18.4645473012      -32.8159278987      -17.8745776876  SOLV      1907            0.0000000000
      5834      1918  TIP3      H1             18.9710495846      -31.9869095264      -17.7181911936  SOLV      1907            0.0000000000
      5835      1918  TIP3      H2             17.6792773102      -32.6484370201      -17.3223317420  SOLV      1907            0.0000000000
      5836      1919  TIP3      OH2            24.0030196980      -28.1624488056      -15.5709599037  SOLV      1908            0.0000000000
      5837      1919  TIP3      H1             23.7040234549      -27.2563163628      -15.3535341560  SOLV      1908            0.0000000000
      5838      1919  TIP3      H2             23.7443179351      -28.6524013280      -14.7684352569  SOLV      1908            0.0000000000
      5839      1920  TIP3      OH2            25.4865966098      -22.3652517681      -10.3236952020  SOLV      1909            0.0000000000
      5840      1920  TIP3      H1             25.8971131506      -21.6324408366      -10.8309940381  SOLV      1909            0.0000000000
      5841      1920  TIP3      H2             26.2697358432      -22.7676721041       -9.9169957806  SOLV      1909            0.0000000000
      5842      1921  TIP3      OH2            21.9573986088      -23.3897694432      -16.4830710852  SOLV      1910            0.0000000000
      5843      1921  TIP3      H1             21.1075124811      -23.2779197165      -16.0144584832  SOLV      1910            0.0000000000
      5844      1921  TIP3      H2             22.3050205997      -22.4685796481      -16.4502842117  SOLV      1910            0.0000000000
      5845      1922  TIP3      OH2            29.2850028287      -25.9332547801      -10.6766599214  SOLV      1911            0.0000000000
      5846      1922  TIP3      H1             29.1692055623      -25.9772943595       -9.7009308564  SOLV      1911            0.0000000000
      5847      1922  TIP3      H2             29.9882197845      -26.5779667224      -10.8130351722  SOLV      1911            0.0000000000
      5848      1923  TIP3      OH2            31.0560094109      -20.4537437375       -9.7805539469  SOLV      1912            0.0000000000
      5849      1923  TIP3      H1             30.9249872931      -21.3856387571       -9.5003533032  SOLV      1912            0.0000000000
      5850      1923  TIP3      H2             30.5291808820      -20.4832424612      -10.6082548344  SOLV      1912            0.0000000000
      5851      1924  TIP3      OH2            22.6158694713      -34.0613040955       -4.9420310339  SOLV      1913            0.0000000000
      5852      1924  TIP3      H1             21.8524500700      -34.6139933172       -5.1873345487  SOLV      1913            0.0000000000
      5853      1924  TIP3      H2             23.0885022215      -34.6656543256       -4.3473383923  SOLV      1913            0.0000000000
      5854      1925  TIP3      OH2            19.8432348788      -23.7558515010       -8.7274025188  SOLV      1914            0.0000000000
      5855      1925  TIP3      H1             20.4061102171      -24.4441619127       -8.3338544244  SOLV      1914            0.0000000000
      5856      1925  TIP3      H2             20.1511951075      -22.9672284649       -8.2597169427  SOLV      1914            0.0000000000
      5857      1926  TIP3      OH2            22.5836580790      -27.0787325939      -21.8033159493  SOLV      1915            0.0000000000
      5858      1926  TIP3      H1             23.3633979841      -27.6257336336      -22.0161196703  SOLV      1915            0.0000000000
      5859      1926  TIP3      H2             22.5193725674      -27.1902567013      -20.8327768211  SOLV      1915            0.0000000000
      5860      1927  TIP3      OH2            22.2607746633      -27.2720055629      -19.1013738552  SOLV      1916            0.0000000000
      5861      1927  TIP3      H1             22.9973262521      -27.4642667393      -18.5035301812  SOLV      1916            0.0000000000
      5862      1927  TIP3      H2             22.2047313712      -26.2904576545      -19.0308486090  SOLV      1916            0.0000000000
      5863      1928  TIP3      OH2            19.4618830937      -30.3294802549      -17.1065419885  SOLV      1917            0.0000000000
      5864      1928  TIP3      H1             18.8261940082      -29.8398495294      -16.5406517798  SOLV      1917            0.0000000000
      5865      1928  TIP3      H2             19.6198452890      -29.6522447930      -17.7962719860  SOLV      1917            0.0000000000
      5866      1929  TIP3      OH2            24.7751028567      -25.2671526558      -19.6927801740  SOLV      1918            0.0000000000
      5867      1929  TIP3      H1             23.9037620445      -25.0104355181      -19.3319083466  SOLV      1918            0.0000000000
      5868      1929  TIP3      H2             24.9668545200      -24.4952896520      -20.2493282614  SOLV      1918            0.0000000000
      5869      1930  TIP3      OH2            26.6540898967      -34.7801395693      -15.7251907433  SOLV      1919            0.0000000000
      5870      1930  TIP3      H1             27.3306320655      -34.1014080917      -15.9436713808  SOLV      1919            0.0000000000
      5871      1930  TIP3      H2             26.7166960171      -34.8061059879      -14.7462640839  SOLV      1919            0.0000000000
      5872      1931  TIP3      OH2            29.5079050520      -31.5636338953       -7.5368425386  SOLV      1920            0.0000000000
      5873      1931  TIP3      H1             29.6846921833      -30.8810451033       -6.8547126180  SOLV      1920            0.0000000000
      5874      1931  TIP3      H2             30.0054022595      -32.3235892056       -7.2020374097  SOLV      1920            0.0000000000
      5875      1932  TIP3      OH2            22.2463393839      -24.5556970165      -18.9626085184  SOLV      1921            0.0000000000
      5876      1932  TIP3      H1             21.9654050045      -23.8569260192      -19.5978796274  SOLV      1921            0.0000000000
      5877      1932  TIP3      H2             22.1069348736      -24.0977982111      -18.1039138614  SOLV      1921            0.0000000000
      5878      1933  TIP3      OH2            19.4637971572      -28.2862798521      -19.0535032002  SOLV      1922            0.0000000000
      5879      1933  TIP3      H1             20.0749396202      -27.5441564329      -18.9043518254  SOLV      1922            0.0000000000
      5880      1933  TIP3      H2             19.9081265413      -28.7180793030      -19.8088442868  SOLV      1922            0.0000000000
      5881      1934  TIP3      OH2            19.2326446730      -35.4299297758      -17.9450584683  SOLV      1923            0.0000000000
      5882      1934  TIP3      H1             19.1924363123      -34.4519025313      -17.8418263425  SOLV      1923            0.0000000000
      5883      1934  TIP3      H2             18.3583958880      -35.5923051696      -18.3230594825  SOLV      1923            0.0000000000
      5884      1935  TIP3      OH2            18.0859787993      -26.1801247061      -15.2605363617  SOLV      1924            0.0000000000
      5885      1935  TIP3      H1             17.5174314221      -25.8179258295      -14.5668774389  SOLV      1924            0.0000000000
      5886      1935  TIP3      H2             17.7646682810      -25.6869713310      -16.0540641811  SOLV      1924            0.0000000000
      5887      1936  TIP3      OH2            19.7700887742      -20.5842142328       -4.4034877297  SOLV      1925            0.0000000000
      5888      1936  TIP3      H1             20.6557689174      -20.5826654955       -3.9733039672  SOLV      1925            0.0000000000
      5889      1936  TIP3      H2             19.6190156873      -21.5390863245       -4.4969807408  SOLV      1925            0.0000000000
      5890      1937  TIP3      OH2            24.4996947756      -21.0869022296       -4.0110805222  SOLV      1926            0.0000000000
      5891      1937  TIP3      H1             25.4613938861      -21.1906464599       -3.9840230213  SOLV      1926            0.0000000000
      5892      1937  TIP3      H2             24.2705964291      -21.6996255534       -4.7408447903  SOLV      1926            0.0000000000
      5893      1938  TIP3      OH2            24.4674464266      -25.3182503582      -22.7369710569  SOLV      1927            0.0000000000
      5894      1938  TIP3      H1             23.7175090909      -25.8205714780      -22.3543900711  SOLV      1927            0.0000000000
      5895      1938  TIP3      H2             25.1304355689      -26.0272281422      -22.7835504773  SOLV      1927            0.0000000000
      5896      1939  TIP3      OH2            30.8821974678      -21.9667751211       -6.5940448919  SOLV      1928            0.0000000000
      5897      1939  TIP3      H1             30.7811847724      -22.6678770360       -5.9058827578  SOLV      1928            0.0000000000
      5898      1939  TIP3      H2             31.8332783435      -21.9823265804       -6.7599261316  SOLV      1928            0.0000000000
      5899      1940  TIP3      OH2            21.0404071938      -26.5709129524       -2.4744480376  SOLV      1929            0.0000000000
      5900      1940  TIP3      H1             21.1888236979      -27.5321675925       -2.3974713608  SOLV      1929            0.0000000000
      5901      1940  TIP3      H2             20.1850478310      -26.5430284526       -2.9562764059  SOLV      1929            0.0000000000
      5902      1941  TIP3      OH2            20.9341162675      -30.0479822576      -20.6731989907  SOLV      1930            0.0000000000
      5903      1941  TIP3      H1             21.5282852257      -30.3799843418      -19.9745972432  SOLV      1930            0.0000000000
      5904      1941  TIP3      H2             21.5008932881      -29.4161153728      -21.1439454033  SOLV      1930            0.0000000000
      5905      1942  TIP3      OH2            27.1000807802      -25.6975285497       -4.7208820344  SOLV      1931            0.0000000000
      5906      1942  TIP3      H1             26.6952051909      -25.4640065629       -5.5830944607  SOLV      1931            0.0000000000
      5907      1942  TIP3      H2             27.3942034377      -26.6216382967       -4.8619215304  SOLV      1931            0.0000000000
      5908      1943  TIP3      OH2            25.2774633753      -28.0442971556      -22.1051304509  SOLV      1932            0.0000000000
      5909      1943  TIP3      H1             25.8980957984      -27.7260609875      -21.4166915865  SOLV      1932            0.0000000000
      5910      1943  TIP3      H2             25.8702422005      -28.6728110764      -22.5428610470  SOLV      1932            0.0000000000
      5911      1944  TIP3      OH2            22.2719216557      -29.2154996465       -2.6399790043  SOLV      1933            0.0000000000
      5912      1944  TIP3      H1             23.0877018787      -29.5643720695       -3.0228077404  SOLV      1933            0.0000000000
      5913      1944  TIP3      H2             22.5826341945      -28.8689058354       -1.7771603827  SOLV      1933            0.0000000000
      5914      1945  TIP3      OH2            22.7742969842      -31.1038149332      -18.2410234477  SOLV      1934            0.0000000000
      5915      1945  TIP3      H1             22.3781720153      -31.0833986899      -17.3453658258  SOLV      1934            0.0000000000
      5916      1945  TIP3      H2             23.0633548150      -32.0268563812      -18.2710337114  SOLV      1934            0.0000000000
      5917      1946  TIP3      OH2            25.6933727163      -30.3478678357       -6.0020978782  SOLV      1935            0.0000000000
      5918      1946  TIP3      H1             24.8761167378      -29.8060002580       -6.0484977476  SOLV      1935            0.0000000000
      5919      1946  TIP3      H2             26.1833271164      -30.0417243120       -6.8023316591  SOLV      1935            0.0000000000
      5920      1947  TIP3      OH2            30.6995789892      -26.4079018588       -4.5790592576  SOLV      1936            0.0000000000
      5921      1947  TIP3      H1             31.5505040116      -26.4814636608       -5.0214260890  SOLV      1936            0.0000000000
      5922      1947  TIP3      H2             30.7631548960      -27.0853060736       -3.8807186264  SOLV      1936            0.0000000000
      5923      1948  TIP3      OH2            26.7600151277      -32.4546619230       -4.6943656132  SOLV      1937            0.0000000000
      5924      1948  TIP3      H1             26.7310629556      -33.2627193726       -5.2256471681  SOLV      1937            0.0000000000
      5925      1948  TIP3      H2             26.3603673888      -31.7942184347       -5.3085721972  SOLV      1937            0.0000000000
      5926      1949  TIP3      OH2            27.1759098954      -29.3084558462       -7.9761805591  SOLV      1938            0.0000000000
      5927      1949  TIP3      H1             27.9868609735      -29.3005975218       -8.5091723528  SOLV      1938            0.0000000000
      5928      1949  TIP3      H2             26.6111306091      -28.6692846343       -8.4598080814  SOLV      1938            0.0000000000
      5929      1950  TIP3      OH2            25.5584008029      -31.1827717146       -2.4640447082  SOLV      1939            0.0000000000
      5930      1950  TIP3      H1             24.8161263950      -31.8083205229       -2.3580965409  SOLV      1939            0.0000000000
      5931      1950  TIP3      H2             25.9038244099      -31.4492218316       -3.3381673562  SOLV      1939            0.0000000000
      5932      1951  TIP3      OH2            29.2674698319      -31.5669239216       -3.8608848442  SOLV      1940            0.0000000000
      5933      1951  TIP3      H1             29.5587972718      -32.2675176083       -3.2508063655  SOLV      1940            0.0000000000
      5934      1951  TIP3      H2             28.3640303663      -31.8668068566       -4.0961824118  SOLV      1940            0.0000000000
      5935      1952  TIP3      OH2            23.8469038419      -33.2942355523       -1.9328878205  SOLV      1941            0.0000000000
      5936      1952  TIP3      H1             24.0182391732      -34.1203635754       -2.4239680118  SOLV      1941            0.0000000000
      5937      1952  TIP3      H2             24.4573908948      -33.3924639623       -1.1891761055  SOLV      1941            0.0000000000
      5938      1953  TIP3      OH2            22.0281973888      -22.5254218679      -20.8396404369  SOLV      1942            0.0000000000
      5939      1953  TIP3      H1             22.9767726998      -22.5882376459      -21.0558780378  SOLV      1942            0.0000000000
      5940      1953  TIP3      H2             21.7265121372      -21.9856340709      -21.5959856689  SOLV      1942            0.0000000000
      5941      1954  TIP3      OH2            16.7768256772      -28.6681983749      -18.7210356064  SOLV      1943            0.0000000000
      5942      1954  TIP3      H1             17.7269795303      -28.4563349726      -18.8632163370  SOLV      1943            0.0000000000
      5943      1954  TIP3      H2             16.7281595270      -29.5696472817      -19.1010182743  SOLV      1943            0.0000000000
      5944      1955  TIP3      OH2            15.9835980031      -22.5652268126      -14.5240461455  SOLV      1944            0.0000000000
      5945      1955  TIP3      H1             15.3273125123      -23.1597240857      -14.9464515239  SOLV      1944            0.0000000000
      5946      1955  TIP3      H2             16.4176711706      -23.1817791534      -13.8986378374  SOLV      1944            0.0000000000
      5947      1956  TIP3      OH2            17.3449949771      -24.1505102911      -12.7030271138  SOLV      1945            0.0000000000
      5948      1956  TIP3      H1             17.2035357221      -24.7986990868      -11.9917925396  SOLV      1945            0.0000000000
      5949      1956  TIP3      H2             17.8690896269      -23.4840813810      -12.2200635698  SOLV      1945            0.0000000000
      5950      1957  TIP3      OH2            19.1418382265      -29.9466724775       -8.9815088400  SOLV      1946            0.0000000000
      5951      1957  TIP3      H1             19.1413966943      -30.2894344186       -9.8965532360  SOLV      1946            0.0000000000
      5952      1957  TIP3      H2             20.1122476315      -29.9245945513       -8.7959037241  SOLV      1946            0.0000000000
      5953      1958  TIP3      OH2            21.1107078654      -33.1694964057       -2.2484154239  SOLV      1947            0.0000000000
      5954      1958  TIP3      H1             22.0906566874      -33.1343421800       -2.2436293654  SOLV      1947            0.0000000000
      5955      1958  TIP3      H2             20.9530308733      -34.0845768585       -1.9701704875  SOLV      1947            0.0000000000
      5956      1959  TIP3      OH2            18.9631884598      -33.5284215774       -8.2600932593  SOLV      1948            0.0000000000
      5957      1959  TIP3      H1             19.5046831047      -33.4172169988       -9.0703461295  SOLV      1948            0.0000000000
      5958      1959  TIP3      H2             19.2885284777      -32.8038499818       -7.7081610784  SOLV      1948            0.0000000000
      5959      1960  TIP3      OH2            21.3940824207      -23.2584217425       -4.3207918537  SOLV      1949            0.0000000000
      5960      1960  TIP3      H1             20.4711465603      -23.5410402329       -4.4610604140  SOLV      1949            0.0000000000
      5961      1960  TIP3      H2             21.5452984900      -23.5064335232       -3.4017494665  SOLV      1949            0.0000000000
      5962      1961  TIP3      OH2            23.2381958924      -22.9378895531       -8.8072196882  SOLV      1950            0.0000000000
      5963      1961  TIP3      H1             22.7747387504      -22.1720537801       -9.2100979673  SOLV      1950            0.0000000000
      5964      1961  TIP3      H2             24.1018383588      -22.8185547444       -9.2553980195  SOLV      1950            0.0000000000
      5965      1962  TIP3      OH2            27.5302299518      -20.6169287783       -7.3757692711  SOLV      1951            0.0000000000
      5966      1962  TIP3      H1             27.9793243169      -20.6049562194       -6.5049588729  SOLV      1951            0.0000000000
      5967      1962  TIP3      H2             28.1002863919      -19.9905425597       -7.8748381990  SOLV      1951            0.0000000000
      5968      1963  TIP3      OH2            29.1830965621      -18.8327538949       -8.6146173307  SOLV      1952            0.0000000000
      5969      1963  TIP3      H1             29.8793637098      -19.3990823623       -9.0173478593  SOLV      1952            0.0000000000
      5970      1963  TIP3      H2             29.7550589982      -18.2171518840       -8.1148957510  SOLV      1952            0.0000000000
      5971      1964  TIP3      OH2            19.9305273320      -20.4661742031       -8.5175447771  SOLV      1953            0.0000000000
      5972      1964  TIP3      H1             19.0283412004      -20.1556026220       -8.7569339453  SOLV      1953            0.0000000000
      5973      1964  TIP3      H2             20.1165031673      -19.8819502186       -7.7679986785  SOLV      1953            0.0000000000
      5974      1965  TIP3      OH2            22.3037134082      -20.6451600566       -9.9645306083  SOLV      1954            0.0000000000
      5975      1965  TIP3      H1             21.4201862801      -20.5221225188       -9.5556764556  SOLV      1954            0.0000000000
      5976      1965  TIP3      H2             22.1460343576      -20.3144786415      -10.8727225055  SOLV      1954            0.0000000000
      5977      1966  TIP3      OH2            26.4958276925      -20.3647469845      -12.0156156897  SOLV      1955            0.0000000000
      5978      1966  TIP3      H1             25.7916785219      -20.1581621792      -12.6585103632  SOLV      1955            0.0000000000
      5979      1966  TIP3      H2             26.6419116797      -19.4907631405      -11.5923610126  SOLV      1955            0.0000000000
      5980      1967  TIP3      OH2            29.1836963435      -20.9640072809      -11.6827074765  SOLV      1956            0.0000000000
      5981      1967  TIP3      H1             28.2357958764      -20.7565802058      -11.7973302704  SOLV      1956            0.0000000000
      5982      1967  TIP3      H2             29.6220583289      -20.2675952241      -12.2057315887  SOLV      1956            0.0000000000
      5983      1968  TIP3      OH2            31.1472961926      -19.1212765385      -12.5914559423  SOLV      1957            0.0000000000
      5984      1968  TIP3      H1             30.9663076935      -18.1646161963      -12.7376145060  SOLV      1957            0.0000000000
      5985      1968  TIP3      H2             31.3455065577      -19.3965841875      -13.4967087335  SOLV      1957            0.0000000000
      5986      1969  TIP3      OH2            19.0555527229      -22.5274901126      -11.1430143478  SOLV      1958            0.0000000000
      5987      1969  TIP3      H1             19.3217986096      -22.7934932356      -10.2379065850  SOLV      1958            0.0000000000
      5988      1969  TIP3      H2             19.7946019672      -22.9392969892      -11.6467646507  SOLV      1958            0.0000000000
      5989      1970  TIP3      OH2            21.0415608204      -23.7776573057      -12.5137047284  SOLV      1959            0.0000000000
      5990      1970  TIP3      H1             21.2000398448      -24.6151910498      -12.0176831944  SOLV      1959            0.0000000000
      5991      1970  TIP3      H2             21.9526176221      -23.4119759377      -12.5509496156  SOLV      1959            0.0000000000
      5992      1971  TIP3      OH2            23.6934157022      -22.8777732987      -12.4473927461  SOLV      1960            0.0000000000
      5993      1971  TIP3      H1             24.0188645450      -23.7911701061      -12.5509741085  SOLV      1960            0.0000000000
      5994      1971  TIP3      H2             24.1996142111      -22.6164013626      -11.6537923359  SOLV      1960            0.0000000000
      5995      1972  TIP3      OH2            16.9374612249      -24.7076328211      -17.2158945667  SOLV      1961            0.0000000000
      5996      1972  TIP3      H1             16.0726865877      -25.0168184914      -17.5429852605  SOLV      1961            0.0000000000
      5997      1972  TIP3      H2             16.8929289903      -23.7775776871      -17.5074330923  SOLV      1961            0.0000000000
      5998      1973  TIP3      OH2            24.6955812214      -22.9449239791      -21.4126272273  SOLV      1962            0.0000000000
      5999      1973  TIP3      H1             25.5743933162      -22.7087162127      -21.7678602693  SOLV      1962            0.0000000000
      6000      1973  TIP3      H2             24.4880368117      -23.6890216991      -22.0210662333  SOLV      1962            0.0000000000
      6001      1974  TIP3      OH2            17.6726987789      -24.6299393632      -20.8531780214  SOLV      1963            0.0000000000
      6002      1974  TIP3      H1             17.7753108671      -24.2712980405      -19.9623955905  SOLV      1963            0.0000000000
      6003      1974  TIP3      H2             18.5669454903      -25.0129698056      -21.0203479486  SOLV      1963            0.0000000000
      6004      1975  TIP3      OH2           -28.6629766522      -18.6320265118       -4.0592280522  SOLV      1964            0.0000000000
      6005      1975  TIP3      H1            -28.9758531238      -17.7314892543       -4.2793580192  SOLV      1964            0.0000000000
      6006      1975  TIP3      H2            -29.4235899236      -19.1610520627       -4.3591263575  SOLV      1964            0.0000000000
      6007      1976  TIP3      OH2           -28.6820657963      -18.6488513525       -0.1664580406  SOLV      1965            0.0000000000
      6008      1976  TIP3      H1            -28.3102360584      -18.8672645895        0.7089763944  SOLV      1965            0.0000000000
      6009      1976  TIP3      H2            -29.0848460830      -19.4929174668       -0.4266287389  SOLV      1965            0.0000000000
      6010      1977  TIP3      OH2           -35.6240770038      -19.6647938378        3.4967727913  SOLV      1966            0.0000000000
      6011      1977  TIP3      H1            -35.3642651090      -20.4122434351        4.0661673002  SOLV      1966            0.0000000000
      6012      1977  TIP3      H2            -34.7608234827      -19.3164265434        3.2234000919  SOLV      1966            0.0000000000
      6013      1978  TIP3      OH2           -26.2305243728      -15.5638411834       -3.3961413329  SOLV      1967            0.0000000000
      6014      1978  TIP3      H1            -26.4007147904      -16.2506568529       -2.7384771368  SOLV      1967            0.0000000000
      6015      1978  TIP3      H2            -25.9182256497      -14.8233829889       -2.8453642303  SOLV      1967            0.0000000000
      6016      1979  TIP3      OH2           -35.9401603376      -15.5985122758        0.6551517594  SOLV      1968            0.0000000000
      6017      1979  TIP3      H1            -36.0269738151      -16.5744944239        0.6636455049  SOLV      1968            0.0000000000
      6018      1979  TIP3      H2            -34.9755509216      -15.5048505251        0.5459882869  SOLV      1968            0.0000000000
      6019      1980  TIP3      OH2           -38.9088941221      -23.5989669186       -1.3985489630  SOLV      1969            0.0000000000
      6020      1980  TIP3      H1            -39.0279203016      -22.7107280734       -1.0229786403  SOLV      1969            0.0000000000
      6021      1980  TIP3      H2            -39.7842346659      -23.9907957130       -1.2924892739  SOLV      1969            0.0000000000
      6022      1981  TIP3      OH2           -38.3611592669      -20.8556600592        0.1313131000  SOLV      1970            0.0000000000
      6023      1981  TIP3      H1            -37.7583854973      -21.5088913808        0.5442676750  SOLV      1970            0.0000000000
      6024      1981  TIP3      H2            -37.7521849091      -20.2756081525       -0.3434328245  SOLV      1970            0.0000000000
      6025      1982  TIP3      OH2           -29.7344231514      -11.0363271872       -3.2275107951  SOLV      1971            0.0000000000
      6026      1982  TIP3      H1            -29.3093144761      -11.7591794073       -3.7310459063  SOLV      1971            0.0000000000
      6027      1982  TIP3      H2            -29.8137703573      -11.4233271092       -2.3475475219  SOLV      1971            0.0000000000
      6028      1983  TIP3      OH2           -30.7165853122      -16.3964572605        0.2816926707  SOLV      1972            0.0000000000
      6029      1983  TIP3      H1            -30.2840379788      -17.1589238868       -0.1404065953  SOLV      1972            0.0000000000
      6030      1983  TIP3      H2            -29.9047704730      -15.9072736916        0.5420567905  SOLV      1972            0.0000000000
      6031      1984  TIP3      OH2           -20.5059938855      -23.2109383581        0.2445468237  SOLV      1973            0.0000000000
      6032      1984  TIP3      H1            -20.2310285739      -22.3380202905        0.5809846630  SOLV      1973            0.0000000000
      6033      1984  TIP3      H2            -20.2942549211      -23.1188748436       -0.7029538807  SOLV      1973            0.0000000000
      6034      1985  TIP3      OH2           -26.5747206631      -21.4192578198        0.5569756562  SOLV      1974            0.0000000000
      6035      1985  TIP3      H1            -26.1394953539      -22.2683116147        0.7610500490  SOLV      1974            0.0000000000
      6036      1985  TIP3      H2            -26.9023724368      -21.5918518766       -0.3469098580  SOLV      1974            0.0000000000
      6037      1986  TIP3      OH2           -33.1665067518      -24.8218881338        0.2743485672  SOLV      1975            0.0000000000
      6038      1986  TIP3      H1            -33.3500134000      -24.1014312752       -0.3659797206  SOLV      1975            0.0000000000
      6039      1986  TIP3      H2            -33.6322517492      -25.5600139019       -0.1817740123  SOLV      1975            0.0000000000
      6040      1987  TIP3      OH2           -26.2050406473      -23.8349206895       -3.5888283731  SOLV      1976            0.0000000000
      6041      1987  TIP3      H1            -25.4992953914      -23.9899204712       -2.9183055387  SOLV      1976            0.0000000000
      6042      1987  TIP3      H2            -25.6605710723      -23.5186601976       -4.3343283039  SOLV      1976            0.0000000000
      6043      1988  TIP3      OH2           -36.7638587759      -22.7503227115        1.2411726656  SOLV      1977            0.0000000000
      6044      1988  TIP3      H1            -35.9558820226      -22.8827155248        1.7712506010  SOLV      1977            0.0000000000
      6045      1988  TIP3      H2            -36.5522660804      -23.3199686992        0.4680550722  SOLV      1977            0.0000000000
      6046      1989  TIP3      OH2           -32.4535656086      -20.7929175373       -0.6615482535  SOLV      1978            0.0000000000
      6047      1989  TIP3      H1            -31.5019087123      -21.0263396290       -0.6011136838  SOLV      1978            0.0000000000
      6048      1989  TIP3      H2            -32.8390899565      -21.6282003499       -1.0066678871  SOLV      1978            0.0000000000
      6049      1990  TIP3      OH2           -19.7496101232      -21.0455556800        1.9361563076  SOLV      1979            0.0000000000
      6050      1990  TIP3      H1            -20.5689119072      -20.6087083378        1.6217892812  SOLV      1979            0.0000000000
      6051      1990  TIP3      H2            -19.8960236024      -20.9719647481        2.8891312441  SOLV      1979            0.0000000000
      6052      1991  TIP3      OH2           -33.2390069220      -24.8689954839        4.6147537837  SOLV      1980            0.0000000000
      6053      1991  TIP3      H1            -33.7533757561      -24.4029584381        3.9255934472  SOLV      1980            0.0000000000
      6054      1991  TIP3      H2            -33.6902162290      -24.5680165982        5.4307069852  SOLV      1980            0.0000000000
      6055      1992  TIP3      OH2           -29.7591181322      -16.4101811153       -5.3804805523  SOLV      1981            0.0000000000
      6056      1992  TIP3      H1            -30.2444294264      -16.5769442113       -6.1991850733  SOLV      1981            0.0000000000
      6057      1992  TIP3      H2            -30.2180133696      -15.6032670009       -5.0614103962  SOLV      1981            0.0000000000
      6058      1993  TIP3      OH2           -32.1760716505      -17.1801715076        2.4820775399  SOLV      1982            0.0000000000
      6059      1993  TIP3      H1            -32.7537801954      -16.4718181023        2.8389259209  SOLV      1982            0.0000000000
      6060      1993  TIP3      H2            -31.7286039477      -16.7220138625        1.7379371255  SOLV      1982            0.0000000000
      6061      1994  TIP3      OH2           -24.1989694687      -23.8031296098       -1.7718564095  SOLV      1983            0.0000000000
      6062      1994  TIP3      H1            -24.3508486806      -24.2425770454       -0.9257341403  SOLV      1983            0.0000000000
      6063      1994  TIP3      H2            -23.6751275618      -23.0223514498       -1.5074296770  SOLV      1983            0.0000000000
      6064      1995  TIP3      OH2           -34.4307763484      -23.7126121476        2.4140122196  SOLV      1984            0.0000000000
      6065      1995  TIP3      H1            -33.8169638541      -22.9795812227        2.6482183811  SOLV      1984            0.0000000000
      6066      1995  TIP3      H2            -33.9292063657      -24.1252757448        1.6713363783  SOLV      1984            0.0000000000
      6067      1996  TIP3      OH2           -33.9133858736      -15.2076140990        3.5380018983  SOLV      1985            0.0000000000
      6068      1996  TIP3      H1            -34.1238714045      -14.3370580081        3.1415843080  SOLV      1985            0.0000000000
      6069      1996  TIP3      H2            -34.7287534963      -15.3521425819        4.0556825656  SOLV      1985            0.0000000000
      6070      1997  TIP3      OH2           -39.8944509314      -18.4791400208       -4.0144897342  SOLV      1986            0.0000000000
      6071      1997  TIP3      H1            -40.2051228396      -18.4494585306       -4.9303166692  SOLV      1986            0.0000000000
      6072      1997  TIP3      H2            -39.6722466667      -17.5406487354       -3.8161838111  SOLV      1986            0.0000000000
      6073      1998  TIP3      OH2           -25.5744140621      -13.1783942656       -1.7803429060  SOLV      1987            0.0000000000
      6074      1998  TIP3      H1            -26.4660344352      -13.2594880086       -1.3697106840  SOLV      1987            0.0000000000
      6075      1998  TIP3      H2            -25.6472023767      -12.3006275893       -2.2077265967  SOLV      1987            0.0000000000
      6076      1999  TIP3      OH2           -22.6008090441      -24.1797691675        1.9210236312  SOLV      1988            0.0000000000
      6077      1999  TIP3      H1            -23.4839409153      -23.9680767719        1.5710666725  SOLV      1988            0.0000000000
      6078      1999  TIP3      H2            -22.0122466549      -23.8724663669        1.2002644897  SOLV      1988            0.0000000000
      6079      2000  TIP3      OH2           -29.7574372088      -27.6928445388        1.6880759869  SOLV      1989            0.0000000000
      6080      2000  TIP3      H1            -29.8617437288      -28.6368991852        1.9651211404  SOLV      1989            0.0000000000
      6081      2000  TIP3      H2            -30.5111004738      -27.3124072165        2.1835766017  SOLV      1989            0.0000000000
      6082      2001  TIP3      OH2           -28.5659446904      -12.7777757082       -5.0642848648  SOLV      1990            0.0000000000
      6083      2001  TIP3      H1            -28.0485780903      -13.5979572885       -5.2285562670  SOLV      1990            0.0000000000
      6084      2001  TIP3      H2            -27.9285660119      -12.1183696427       -5.4256391698  SOLV      1990            0.0000000000
      6085      2002  TIP3      OH2           -27.0682744621      -14.9114644520       -5.9424681805  SOLV      1991            0.0000000000
      6086      2002  TIP3      H1            -27.6106050295      -15.6795557695       -6.1687107618  SOLV      1991            0.0000000000
      6087      2002  TIP3      H2            -26.6670513896      -15.2066065450       -5.0932779998  SOLV      1991            0.0000000000
      6088      2003  TIP3      OH2           -23.3104292975      -14.1090148357        1.7097553262  SOLV      1992            0.0000000000
      6089      2003  TIP3      H1            -23.4342620614      -14.8653134732        1.0971160822  SOLV      1992            0.0000000000
      6090      2003  TIP3      H2            -23.4970183970      -13.3449470731        1.1222318228  SOLV      1992            0.0000000000
      6091      2004  TIP3      OH2           -30.3665144190      -20.1551629923       -5.6306802795  SOLV      1993            0.0000000000
      6092      2004  TIP3      H1            -31.1305014907      -19.5800123088       -5.8406480383  SOLV      1993            0.0000000000
      6093      2004  TIP3      H2            -29.8878797427      -20.1734379051       -6.4811785805  SOLV      1993            0.0000000000
      6094      2005  TIP3      OH2           -30.4924709722      -22.3068787373       -8.7406418814  SOLV      1994            0.0000000000
      6095      2005  TIP3      H1            -30.0561930857      -21.8559958883       -7.9954981457  SOLV      1994            0.0000000000
      6096      2005  TIP3      H2            -29.6915668805      -22.5622846581       -9.2596518967  SOLV      1994            0.0000000000
      6097      2006  TIP3      OH2           -21.3403466760      -17.6617209733        0.1935622653  SOLV      1995            0.0000000000
      6098      2006  TIP3      H1            -22.1918527107      -17.1689099740        0.2160469248  SOLV      1995            0.0000000000
      6099      2006  TIP3      H2            -21.0401107499      -17.4300035874       -0.7138424972  SOLV      1995            0.0000000000
      6100      2007  TIP3      OH2           -26.8685092172      -19.2777055987       -6.0143416797  SOLV      1996            0.0000000000
      6101      2007  TIP3      H1            -27.4067935415      -19.0547026450       -5.2193944716  SOLV      1996            0.0000000000
      6102      2007  TIP3      H2            -26.0190267578      -19.5267635282       -5.5922393782  SOLV      1996            0.0000000000
      6103      2008  TIP3      OH2           -24.5615925206      -18.9526251053        3.1724468722  SOLV      1997            0.0000000000
      6104      2008  TIP3      H1            -24.5822104809      -18.1189391193        3.6818069921  SOLV      1997            0.0000000000
      6105      2008  TIP3      H2            -25.4174698277      -18.8947235644        2.7028306702  SOLV      1997            0.0000000000
      6106      2009  TIP3      OH2           -34.5253440143      -19.3178737469       -1.7808154346  SOLV      1998            0.0000000000
      6107      2009  TIP3      H1            -34.9387247876      -19.9033703062       -2.4552746810  SOLV      1998            0.0000000000
      6108      2009  TIP3      H2            -33.7686097705      -19.8636697377       -1.4811695089  SOLV      1998            0.0000000000
      6109      2010  TIP3      OH2           -33.2848084912      -15.2573294662       -0.3513497039  SOLV      1999            0.0000000000
      6110      2010  TIP3      H1            -33.4575174571      -15.5538153788       -1.2588460345  SOLV      1999            0.0000000000
      6111      2010  TIP3      H2            -32.3904873396      -15.6214271926       -0.1834846179  SOLV      1999            0.0000000000
      6112      2011  TIP3      OH2           -33.2690678495      -19.5994935334        1.7318874676  SOLV      2000            0.0000000000
      6113      2011  TIP3      H1            -32.9232856691      -19.8939840525        0.8591487294  SOLV      2000            0.0000000000
      6114      2011  TIP3      H2            -32.7927553132      -18.7510522365        1.8689583599  SOLV      2000            0.0000000000
      6115      2012  TIP3      OH2           -27.9620920247      -13.2508054577       -0.5239276689  SOLV      2001            0.0000000000
      6116      2012  TIP3      H1            -28.0877027020      -12.4289803746       -0.0141024269  SOLV      2001            0.0000000000
      6117      2012  TIP3      H2            -28.1394353401      -13.9513658853        0.1330406920  SOLV      2001            0.0000000000
      6118      2013  TIP3      OH2           -31.8038054922      -14.0768583674        4.9464469061  SOLV      2002            0.0000000000
      6119      2013  TIP3      H1            -32.4122934344      -13.4652366290        5.4121957908  SOLV      2002            0.0000000000
      6120      2013  TIP3      H2            -32.4476813391      -14.6060139903        4.4342825182  SOLV      2002            0.0000000000
      6121      2014  TIP3      OH2           -28.5488279866      -20.6624335298       -7.6223164463  SOLV      2003            0.0000000000
      6122      2014  TIP3      H1            -27.9316661797      -20.0835648303       -7.1187604521  SOLV      2003            0.0000000000
      6123      2014  TIP3      H2            -28.2848514062      -20.4154113968       -8.5446238531  SOLV      2003            0.0000000000
      6124      2015  TIP3      OH2           -34.2412098821      -18.5465906040        6.0865930515  SOLV      2004            0.0000000000
      6125      2015  TIP3      H1            -34.2142312271      -17.6506808613        6.4764031164  SOLV      2004            0.0000000000
      6126      2015  TIP3      H2            -35.1927764047      -18.6538353190        5.9222370910  SOLV      2004            0.0000000000
      6127      2016  TIP3      OH2           -31.0388526438      -13.9755331776       -4.9964884692  SOLV      2005            0.0000000000
      6128      2016  TIP3      H1            -30.2063730391      -13.4665687774       -4.9298396185  SOLV      2005            0.0000000000
      6129      2016  TIP3      H2            -31.6387863629      -13.3346384247       -5.3985265134  SOLV      2005            0.0000000000
      6130      2017  TIP3      OH2           -33.9123078593      -12.4458990224        5.8114699284  SOLV      2006            0.0000000000
      6131      2017  TIP3      H1            -34.1898546538      -12.3369797524        4.8798274696  SOLV      2006            0.0000000000
      6132      2017  TIP3      H2            -34.7650322387      -12.5302600173        6.2720934397  SOLV      2006            0.0000000000
      6133      2018  TIP3      OH2           -23.3322182194      -28.2317793774       -7.2034342537  SOLV      2007            0.0000000000
      6134      2018  TIP3      H1            -24.1986778099      -28.1202737589       -6.7651028676  SOLV      2007            0.0000000000
      6135      2018  TIP3      H2            -23.2544667960      -27.3950920291       -7.7020473349  SOLV      2007            0.0000000000
      6136      2019  TIP3      OH2           -35.7873658184      -20.8656506452       -3.6851342193  SOLV      2008            0.0000000000
      6137      2019  TIP3      H1            -36.5059404357      -20.3913025989       -4.1611982465  SOLV      2008            0.0000000000
      6138      2019  TIP3      H2            -36.1620489607      -21.7491727521       -3.6077066418  SOLV      2008            0.0000000000
      6139      2020  TIP3      OH2           -24.8998961221      -14.6208189109      -12.2447932966  SOLV      2009            0.0000000000
      6140      2020  TIP3      H1            -25.1607262119      -13.6643143519      -12.1724355583  SOLV      2009            0.0000000000
      6141      2020  TIP3      H2            -24.3984820515      -14.6788998612      -11.4044955494  SOLV      2009            0.0000000000
      6142      2021  TIP3      OH2           -38.0342590349      -17.1826737595        5.1796243523  SOLV      2010            0.0000000000
      6143      2021  TIP3      H1            -38.2845614563      -17.6496280742        4.3695081829  SOLV      2010            0.0000000000
      6144      2021  TIP3      H2            -37.8066646041      -17.9311034177        5.7686648718  SOLV      2010            0.0000000000
      6145      2022  TIP3      OH2           -39.4597679676      -15.2838827771        2.1100627290  SOLV      2011            0.0000000000
      6146      2022  TIP3      H1            -38.7939661715      -15.5500162597        1.4640383373  SOLV      2011            0.0000000000
      6147      2022  TIP3      H2            -39.1870207671      -14.3746549152        2.3074435595  SOLV      2011            0.0000000000
      6148      2023  TIP3      OH2           -20.9138854660      -10.5907723705        2.2295004128  SOLV      2012            0.0000000000
      6149      2023  TIP3      H1            -20.9470875996      -11.5508350919        2.3875630328  SOLV      2012            0.0000000000
      6150      2023  TIP3      H2            -21.7494875293      -10.3120472420        2.6676760265  SOLV      2012            0.0000000000
      6151      2024  TIP3      OH2           -29.8644286097      -12.7801099957        3.5160387184  SOLV      2013            0.0000000000
      6152      2024  TIP3      H1            -29.9010606379      -11.8528764899        3.8392849509  SOLV      2013            0.0000000000
      6153      2024  TIP3      H2            -30.5642267411      -13.1950865134        4.0673625438  SOLV      2013            0.0000000000
      6154      2025  TIP3      OH2           -32.2143778205      -11.5040032556       -6.9491388289  SOLV      2014            0.0000000000
      6155      2025  TIP3      H1            -32.6945374970      -11.6015615869       -7.7883913808  SOLV      2014            0.0000000000
      6156      2025  TIP3      H2            -32.5217821275      -10.6295380995       -6.6372137828  SOLV      2014            0.0000000000
      6157      2026  TIP3      OH2           -37.7926031621      -12.9938604900       -3.0437548545  SOLV      2015            0.0000000000
      6158      2026  TIP3      H1            -37.2274523778      -13.0719692500       -2.2426784355  SOLV      2015            0.0000000000
      6159      2026  TIP3      H2            -38.5960914646      -13.4244081760       -2.6808848313  SOLV      2015            0.0000000000
      6160      2027  TIP3      OH2           -30.2343184345      -12.4681499183      -10.5445887495  SOLV      2016            0.0000000000
      6161      2027  TIP3      H1            -29.6210029327      -13.1603677189      -10.8742876872  SOLV      2016            0.0000000000
      6162      2027  TIP3      H2            -29.9052476637      -12.3391676419       -9.6286980156  SOLV      2016            0.0000000000
      6163      2028  TIP3      OH2           -29.7138869142      -11.9857963890       -7.8761684105  SOLV      2017            0.0000000000
      6164      2028  TIP3      H1            -30.6010339336      -11.8874487551       -7.4628542692  SOLV      2017            0.0000000000
      6165      2028  TIP3      H2            -29.1929318309      -12.3023313910       -7.1200895604  SOLV      2017            0.0000000000
      6166      2029  TIP3      OH2           -22.0263720103      -19.3403180901        4.9372571683  SOLV      2018            0.0000000000
      6167      2029  TIP3      H1            -22.8802931177      -19.1975404572        4.5004891630  SOLV      2018            0.0000000000
      6168      2029  TIP3      H2            -21.8986209149      -20.2990864495        4.8066194535  SOLV      2018            0.0000000000
      6169      2030  TIP3      OH2           -36.1478459504      -15.1915954951        5.2746687727  SOLV      2019            0.0000000000
      6170      2030  TIP3      H1            -35.5667586218      -15.5488258657        5.9739706018  SOLV      2019            0.0000000000
      6171      2030  TIP3      H2            -36.8674650863      -15.8622952329        5.2336577520  SOLV      2019            0.0000000000
      6172      2031  TIP3      OH2           -32.1735177801      -26.9648462125        2.9901626228  SOLV      2020            0.0000000000
      6173      2031  TIP3      H1            -32.8610017192      -27.1369475743        2.3305116211  SOLV      2020            0.0000000000
      6174      2031  TIP3      H2            -32.5412196016      -26.2006417826        3.4761111665  SOLV      2020            0.0000000000
      6175      2032  TIP3      OH2           -26.6316521538      -25.8449641580        4.9629447787  SOLV      2021            0.0000000000
      6176      2032  TIP3      H1            -25.9587758883      -26.1378959805        5.6112715662  SOLV      2021            0.0000000000
      6177      2032  TIP3      H2            -27.4761810486      -26.0265109221        5.4310494809  SOLV      2021            0.0000000000
      6178      2033  TIP3      OH2           -24.3350925043      -21.5496761284        4.1946750411  SOLV      2022            0.0000000000
      6179      2033  TIP3      H1            -24.8829109555      -21.5828568110        5.0116209006  SOLV      2022            0.0000000000
      6180      2033  TIP3      H2            -24.5832086331      -20.6875772866        3.8072378526  SOLV      2022            0.0000000000
      6181      2034  TIP3      OH2           -27.7234667974      -19.9669910220      -10.0428669346  SOLV      2023            0.0000000000
      6182      2034  TIP3      H1            -27.9982881103      -20.4199237197      -10.8684330556  SOLV      2023            0.0000000000
      6183      2034  TIP3      H2            -26.8117663799      -19.7259826409      -10.2744524097  SOLV      2023            0.0000000000
      6184      2035  TIP3      OH2           -32.6944075385      -21.7883890644        3.2306595664  SOLV      2024            0.0000000000
      6185      2035  TIP3      H1            -33.1479684042      -21.5490958090        4.0631191645  SOLV      2024            0.0000000000
      6186      2035  TIP3      H2            -32.8480423457      -20.9802767757        2.6920993251  SOLV      2024            0.0000000000
      6187      2036  TIP3      OH2           -33.8886958274      -22.9612205112       -1.5721463484  SOLV      2025            0.0000000000
      6188      2036  TIP3      H1            -34.8072079255      -23.2833061623       -1.4417599852  SOLV      2025            0.0000000000
      6189      2036  TIP3      H2            -33.7611103178      -23.2055445711       -2.5185884269  SOLV      2025            0.0000000000
      6190      2037  TIP3      OH2           -28.9844755499      -22.1765253787       -4.3528238645  SOLV      2026            0.0000000000
      6191      2037  TIP3      H1            -29.4903194500      -21.4551270264       -4.7873987717  SOLV      2026            0.0000000000
      6192      2037  TIP3      H2            -28.4349689607      -22.5090186864       -5.0893812872  SOLV      2026            0.0000000000
      6193      2038  TIP3      OH2           -27.2621649652      -19.4173458183        6.4489120416  SOLV      2027            0.0000000000
      6194      2038  TIP3      H1            -27.4729189902      -20.1265954244        7.0953501194  SOLV      2027            0.0000000000
      6195      2038  TIP3      H2            -26.3356358875      -19.2299898638        6.6911489296  SOLV      2027            0.0000000000
      6196      2039  TIP3      OH2           -27.4599618033      -21.8911284328       -1.9995271523  SOLV      2028            0.0000000000
      6197      2039  TIP3      H1            -28.0906218063      -21.6239833956       -2.6994903110  SOLV      2028            0.0000000000
      6198      2039  TIP3      H2            -27.0752125763      -22.6681745350       -2.4589319107  SOLV      2028            0.0000000000
      6199      2040  TIP3      OH2           -34.5198434840      -21.5590507833        5.3288980477  SOLV      2029            0.0000000000
      6200      2040  TIP3      H1            -34.0713884250      -20.9429136391        5.9304120341  SOLV      2029            0.0000000000
      6201      2040  TIP3      H2            -34.6777572942      -22.3326935111        5.8947055467  SOLV      2029            0.0000000000
      6202      2041  TIP3      OH2           -27.3546411743      -19.4399777201        2.2016028593  SOLV      2030            0.0000000000
      6203      2041  TIP3      H1            -27.0139763969      -20.1486297633        1.6066227716  SOLV      2030            0.0000000000
      6204      2041  TIP3      H2            -27.6627032767      -19.9859710214        2.9558162584  SOLV      2030            0.0000000000
      6205      2042  TIP3      OH2           -30.5431629840      -24.7604758304       -1.0589963229  SOLV      2031            0.0000000000
      6206      2042  TIP3      H1            -31.3603325083      -24.8276277845       -0.5298218170  SOLV      2031            0.0000000000
      6207      2042  TIP3      H2            -29.8526455537      -24.8397001364       -0.3784753274  SOLV      2031            0.0000000000
      6208      2043  TIP3      OH2           -36.2648272451      -24.2139378040       -1.0438177380  SOLV      2032            0.0000000000
      6209      2043  TIP3      H1            -37.1850468578      -24.1735029383       -1.3843047950  SOLV      2032            0.0000000000
      6210      2043  TIP3      H2            -36.0794483594      -25.1725338264       -1.0313638134  SOLV      2032            0.0000000000
      6211      2044  TIP3      OH2           -33.5044429892      -23.8754054213       -4.1077425600  SOLV      2033            0.0000000000
      6212      2044  TIP3      H1            -32.5467433378      -24.0533778904       -3.9884322862  SOLV      2033            0.0000000000
      6213      2044  TIP3      H2            -33.6120096109      -24.0529665025       -5.0460059165  SOLV      2033            0.0000000000
      6214      2045  TIP3      OH2           -25.6875196416      -24.0227691168        0.9979214279  SOLV      2034            0.0000000000
      6215      2045  TIP3      H1            -26.0095352038      -23.8753233382        1.9161469012  SOLV      2034            0.0000000000
      6216      2045  TIP3      H2            -26.3823351292      -24.6137127905        0.6584478740  SOLV      2034            0.0000000000
      6217      2046  TIP3      OH2           -23.9677323207       -7.1397661546        3.1939362700  SOLV      2035            0.0000000000
      6218      2046  TIP3      H1            -23.9906830130       -6.8680456957        2.2597899743  SOLV      2035            0.0000000000
      6219      2046  TIP3      H2            -23.1587667726       -6.6821179890        3.5061049255  SOLV      2035            0.0000000000
      6220      2047  TIP3      OH2           -34.4369707069      -16.0194921277        7.3756583913  SOLV      2036            0.0000000000
      6221      2047  TIP3      H1            -33.5960285813      -15.7503400553        7.8013754849  SOLV      2036            0.0000000000
      6222      2047  TIP3      H2            -35.0288973332      -16.0310549238        8.1493714015  SOLV      2036            0.0000000000
      6223      2048  TIP3      OH2           -29.8062979340      -21.4622012328       -0.0765654976  SOLV      2037            0.0000000000
      6224      2048  TIP3      H1            -29.0728854907      -21.8490812299       -0.5793380695  SOLV      2037            0.0000000000
      6225      2048  TIP3      H2            -29.7494117405      -21.9338649427        0.7745778106  SOLV      2037            0.0000000000
      6226      2049  TIP3      OH2           -34.4730340099      -26.6016685367       -1.3398136106  SOLV      2038            0.0000000000
      6227      2049  TIP3      H1            -34.9711289630      -27.4034106615       -1.1224782663  SOLV      2038            0.0000000000
      6228      2049  TIP3      H2            -33.8950831581      -26.9055847384       -2.0550457437  SOLV      2038            0.0000000000
      6229      2050  TIP3      OH2           -30.0312517869      -22.4749031322        2.8180935997  SOLV      2039            0.0000000000
      6230      2050  TIP3      H1            -30.9240977307      -22.1043974335        2.9660334110  SOLV      2039            0.0000000000
      6231      2050  TIP3      H2            -29.4520200117      -21.8563493906        3.3061387294  SOLV      2039            0.0000000000
      6232      2051  TIP3      OH2           -32.5197201066      -18.4792404165       -6.1817760162  SOLV      2040            0.0000000000
      6233      2051  TIP3      H1            -33.1006468856      -19.2744697529       -6.2434334102  SOLV      2040            0.0000000000
      6234      2051  TIP3      H2            -32.7690269520      -18.1546319674       -5.2810590863  SOLV      2040            0.0000000000
      6235      2052  TIP3      OH2           -23.6951484915      -16.2612751752        0.0154069023  SOLV      2041            0.0000000000
      6236      2052  TIP3      H1            -23.4600744667      -15.7307224888       -0.7751459797  SOLV      2041            0.0000000000
      6237      2052  TIP3      H2            -24.5385851611      -16.6847412585       -0.2595990989  SOLV      2041            0.0000000000
      6238      2053  TIP3      OH2           -27.7182297750      -25.6206505691       -7.4945582172  SOLV      2042            0.0000000000
      6239      2053  TIP3      H1            -28.4647330474      -25.6257980932       -8.1277655901  SOLV      2042            0.0000000000
      6240      2053  TIP3      H2            -27.6481861924      -24.6716202741       -7.2740623011  SOLV      2042            0.0000000000
      6241      2054  TIP3      OH2           -28.7589297493      -15.4616426785        3.7780564970  SOLV      2043            0.0000000000
      6242      2054  TIP3      H1            -28.2920026519      -15.5494289367        4.6192845630  SOLV      2043            0.0000000000
      6243      2054  TIP3      H2            -29.0647168385      -14.5383555921        3.7983960394  SOLV      2043            0.0000000000
      6244      2055  TIP3      OH2           -27.3827270227      -23.0124765415       -6.5779617361  SOLV      2044            0.0000000000
      6245      2055  TIP3      H1            -26.4282380271      -22.9091911475       -6.3942210905  SOLV      2044            0.0000000000
      6246      2055  TIP3      H2            -27.5900562492      -22.2075270933       -7.0906681634  SOLV      2044            0.0000000000
      6247      2056  TIP3      OH2           -35.7637512281      -18.3923485478        0.5010821720  SOLV      2045            0.0000000000
      6248      2056  TIP3      H1            -35.3692943239      -18.6415556942       -0.3617576964  SOLV      2045            0.0000000000
      6249      2056  TIP3      H2            -35.2393174795      -18.9315956697        1.1111873956  SOLV      2045            0.0000000000
      6250      2057  TIP3      OH2           -31.2213729616      -17.0783140733       -8.1073207704  SOLV      2046            0.0000000000
      6251      2057  TIP3      H1            -31.6982662803      -16.2155271912       -8.0543738448  SOLV      2046            0.0000000000
      6252      2057  TIP3      H2            -31.7137428011      -17.5970025062       -7.4311277587  SOLV      2046            0.0000000000
      6253      2058  TIP3      OH2           -37.0398217388      -19.1537545529        6.8268737650  SOLV      2047            0.0000000000
      6254      2058  TIP3      H1            -36.5889097355      -19.1981508966        7.6928994631  SOLV      2047            0.0000000000
      6255      2058  TIP3      H2            -37.3608917680      -20.0577423191        6.7116307511  SOLV      2047            0.0000000000
      6256      2059  TIP3      OH2           -29.6318970556      -18.0232308091        6.8416807180  SOLV      2048            0.0000000000
      6257      2059  TIP3      H1            -30.2217944113      -18.6229166569        6.3639701054  SOLV      2048            0.0000000000
      6258      2059  TIP3      H2            -28.7548454424      -18.3724822064        6.5729806103  SOLV      2048            0.0000000000
      6259      2060  TIP3      OH2           -27.1195146174      -12.8907967767        2.7528644013  SOLV      2049            0.0000000000
      6260      2060  TIP3      H1            -28.0831232181      -12.8285106723        2.8788303680  SOLV      2049            0.0000000000
      6261      2060  TIP3      H2            -26.8061814531      -12.3409476338        3.5043029413  SOLV      2049            0.0000000000
      6262      2061  TIP3      OH2           -23.0553799679      -22.1125708351       -8.1711943004  SOLV      2050            0.0000000000
      6263      2061  TIP3      H1            -23.6626902690      -22.5567323823       -8.8086191442  SOLV      2050            0.0000000000
      6264      2061  TIP3      H2            -23.0493797817      -21.2245584492       -8.5914834348  SOLV      2050            0.0000000000
      6265      2062  TIP3      OH2           -20.8097794906      -13.5300646818        2.6063212882  SOLV      2051            0.0000000000
      6266      2062  TIP3      H1            -21.7865770836      -13.5648010354        2.5058108816  SOLV      2051            0.0000000000
      6267      2062  TIP3      H2            -20.5404749359      -13.8235435055        1.7059833724  SOLV      2051            0.0000000000
      6268      2063  TIP3      OH2           -25.9610412254      -14.0880755037       -9.2047430825  SOLV      2052            0.0000000000
      6269      2063  TIP3      H1            -26.1334956936      -14.2554074070       -8.2639351835  SOLV      2052            0.0000000000
      6270      2063  TIP3      H2            -26.3318827210      -14.8872305524       -9.6012283130  SOLV      2052            0.0000000000
      6271      2064  TIP3      OH2           -26.0285999128      -17.6176693648       -0.8154686122  SOLV      2053            0.0000000000
      6272      2064  TIP3      H1            -26.9682531625      -17.8431684102       -0.6757176723  SOLV      2053            0.0000000000
      6273      2064  TIP3      H2            -25.7107621126      -18.4318725247       -1.2540112943  SOLV      2053            0.0000000000
      6274      2065  TIP3      OH2           -34.7294142612      -15.3181694946       -3.2153554834  SOLV      2054            0.0000000000
      6275      2065  TIP3      H1            -34.7774076170      -14.5138049651       -3.7676339879  SOLV      2054            0.0000000000
      6276      2065  TIP3      H2            -35.6632476786      -15.4933335076       -3.0534001763  SOLV      2054            0.0000000000
      6277      2066  TIP3      OH2           -33.4213520219      -17.6885557326       -3.7793921745  SOLV      2055            0.0000000000
      6278      2066  TIP3      H1            -33.7800846454      -16.8015673705       -3.5757632470  SOLV      2055            0.0000000000
      6279      2066  TIP3      H2            -33.7619210777      -18.2142722112       -3.0318050836  SOLV      2055            0.0000000000
      6280      2067  TIP3      OH2           -32.0214704758      -11.9304723240        1.4580041882  SOLV      2056            0.0000000000
      6281      2067  TIP3      H1            -31.6118296921      -11.1868443855        0.9662998096  SOLV      2056            0.0000000000
      6282      2067  TIP3      H2            -31.2494759813      -12.2861395031        1.9275579507  SOLV      2056            0.0000000000
      6283      2068  TIP3      OH2           -35.5647632085      -12.9492637558       -4.7277382471  SOLV      2057            0.0000000000
      6284      2068  TIP3      H1            -36.4047564637      -12.8805867717       -4.2292414110  SOLV      2057            0.0000000000
      6285      2068  TIP3      H2            -35.2377201834      -12.0224516142       -4.6687061640  SOLV      2057            0.0000000000
      6286      2069  TIP3      OH2           -28.2242125360      -15.5820421331        1.0901795960  SOLV      2058            0.0000000000
      6287      2069  TIP3      H1            -28.3381640012      -15.6050438608        2.0664460903  SOLV      2058            0.0000000000
      6288      2069  TIP3      H2            -27.3936618399      -16.0647999410        0.9839141855  SOLV      2058            0.0000000000
      6289      2070  TIP3      OH2           -28.3830279330      -16.5091949401      -10.0569737181  SOLV      2059            0.0000000000
      6290      2070  TIP3      H1            -27.7964408160      -16.8631488203       -9.3487536941  SOLV      2059            0.0000000000
      6291      2070  TIP3      H2            -29.2392358378      -16.8043900317       -9.7164495857  SOLV      2059            0.0000000000
      6292      2071  TIP3      OH2           -25.7007590716      -10.2838680585        1.5201751921  SOLV      2060            0.0000000000
      6293      2071  TIP3      H1            -26.5291424452      -10.7969683152        1.4524360452  SOLV      2060            0.0000000000
      6294      2071  TIP3      H2            -25.8425538717       -9.6146895862        0.8142648844  SOLV      2060            0.0000000000
      6295      2072  TIP3      OH2           -25.1128195114      -11.9404940675      -11.9979839800  SOLV      2061            0.0000000000
      6296      2072  TIP3      H1            -24.7240535725      -11.1434112262      -12.4008375778  SOLV      2061            0.0000000000
      6297      2072  TIP3      H2            -25.9077728176      -11.5303471012      -11.5938162169  SOLV      2061            0.0000000000
      6298      2073  TIP3      OH2           -34.8609832607      -24.3146944390        6.8002556174  SOLV      2062            0.0000000000
      6299      2073  TIP3      H1            -35.7715266834      -24.2138825665        7.1251980826  SOLV      2062            0.0000000000
      6300      2073  TIP3      H2            -34.4304152429      -24.6896333428        7.5900250770  SOLV      2062            0.0000000000
      6301      2074  TIP3      OH2           -26.7695873608      -17.3609024414       -8.0327818927  SOLV      2063            0.0000000000
      6302      2074  TIP3      H1            -26.8994960584      -17.9842463542       -7.2908941895  SOLV      2063            0.0000000000
      6303      2074  TIP3      H2            -25.7905230216      -17.3799706387       -8.0963604952  SOLV      2063            0.0000000000
      6304      2075  TIP3      OH2           -37.7127776666      -13.2337738865        3.0649236712  SOLV      2064            0.0000000000
      6305      2075  TIP3      H1            -37.1824445567      -13.9709166131        3.4071148724  SOLV      2064            0.0000000000
      6306      2075  TIP3      H2            -37.3264825135      -12.4782299343        3.5320639150  SOLV      2064            0.0000000000
      6307      2076  TIP3      OH2           -34.8426473836      -16.7120105885      -10.2106408082  SOLV      2065            0.0000000000
      6308      2076  TIP3      H1            -34.3325047914      -17.4977837350      -10.4434682639  SOLV      2065            0.0000000000
      6309      2076  TIP3      H2            -34.9239118581      -16.8216185026       -9.2332236339  SOLV      2065            0.0000000000
      6310      2077  TIP3      OH2           -35.0069944029      -16.7662735169       -7.5392362520  SOLV      2066            0.0000000000
      6311      2077  TIP3      H1            -34.4965989063      -17.1125898526       -6.7960215663  SOLV      2066            0.0000000000
      6312      2077  TIP3      H2            -35.0916960021      -15.8138207438       -7.3168124299  SOLV      2066            0.0000000000
      6313      2078  TIP3      OH2           -37.8178604046      -19.9074448202       -5.1916262782  SOLV      2067            0.0000000000
      6314      2078  TIP3      H1            -38.6022098468      -19.5996199028       -4.6893991728  SOLV      2067            0.0000000000
      6315      2078  TIP3      H2            -37.8029582489      -19.2262405321       -5.9044396012  SOLV      2067            0.0000000000
      6316      2079  TIP3      OH2           -26.4172973556      -23.4840482643        3.5920920954  SOLV      2068            0.0000000000
      6317      2079  TIP3      H1            -25.6184971213      -23.1023829827        3.9897051606  SOLV      2068            0.0000000000
      6318      2079  TIP3      H2            -26.5418439731      -24.3018639345        4.1226691815  SOLV      2068            0.0000000000
      6319      2080  TIP3      OH2           -27.6125184138      -26.0528153481       -4.6391707321  SOLV      2069            0.0000000000
      6320      2080  TIP3      H1            -27.7337552898      -25.9019465556       -5.5988705926  SOLV      2069            0.0000000000
      6321      2080  TIP3      H2            -27.2297785720      -25.1997122838       -4.3411405914  SOLV      2069            0.0000000000
      6322      2081  TIP3      OH2           -32.6071233460      -14.7645288174       -7.9486302724  SOLV      2070            0.0000000000
      6323      2081  TIP3      H1            -33.4780487773      -14.6025554239       -7.5415862092  SOLV      2070            0.0000000000
      6324      2081  TIP3      H2            -32.4864919784      -13.9304339113       -8.4314097366  SOLV      2070            0.0000000000
      6325      2082  TIP3      OH2           -30.8094833166      -24.1749299884       -3.7412382628  SOLV      2071            0.0000000000
      6326      2082  TIP3      H1            -30.1678521621      -23.4538026552       -3.9185032226  SOLV      2071            0.0000000000
      6327      2082  TIP3      H2            -30.7060517811      -24.2897127425       -2.7717941906  SOLV      2071            0.0000000000
      6328      2083  TIP3      OH2           -28.0725323883      -21.0330950111        4.2935653378  SOLV      2072            0.0000000000
      6329      2083  TIP3      H1            -27.8038601748      -20.5061300840        5.0755898842  SOLV      2072            0.0000000000
      6330      2083  TIP3      H2            -27.5476833850      -21.8459291161        4.4008225730  SOLV      2072            0.0000000000
      6331      2084  TIP3      OH2           -29.2850931515      -26.9213223033       -2.6424788756  SOLV      2073            0.0000000000
      6332      2084  TIP3      H1            -29.3815848795      -26.0867937010       -2.1486465649  SOLV      2073            0.0000000000
      6333      2084  TIP3      H2            -28.6790731726      -26.6354095835       -3.3674690766  SOLV      2073            0.0000000000
      6334      2085  TIP3      OH2           -35.1951651973      -14.0777119863       -7.1908300495  SOLV      2074            0.0000000000
      6335      2085  TIP3      H1            -35.4776087260      -13.3630671384       -7.8033011229  SOLV      2074            0.0000000000
      6336      2085  TIP3      H2            -35.3405811647      -13.6494926082       -6.3163056008  SOLV      2074            0.0000000000
      6337      2086  TIP3      OH2           -21.6881812042      -22.0113770545        4.0415688931  SOLV      2075            0.0000000000
      6338      2086  TIP3      H1            -22.6582827880      -21.9786889244        4.2068708286  SOLV      2075            0.0000000000
      6339      2086  TIP3      H2            -21.6910801270      -22.5592989315        3.2429733300  SOLV      2075            0.0000000000
      6340      2087  TIP3      OH2           -25.1746347988      -20.0764400568       -1.9951501702  SOLV      2076            0.0000000000
      6341      2087  TIP3      H1            -25.9390471175      -20.6665718972       -1.8732798460  SOLV      2076            0.0000000000
      6342      2087  TIP3      H2            -24.4650614060      -20.5505344158       -1.5117610763  SOLV      2076            0.0000000000
      6343      2088  TIP3      OH2           -37.7805811910      -17.9208063914       -7.0830890968  SOLV      2077            0.0000000000
      6344      2088  TIP3      H1            -37.5748129103      -17.0456635401       -6.7370111668  SOLV      2077            0.0000000000
      6345      2088  TIP3      H2            -37.7955640653      -17.7372285701       -8.0326611157  SOLV      2077            0.0000000000
      6346      2089  TIP3      OH2           -25.4693772152      -10.4858896440       -2.5371323892  SOLV      2078            0.0000000000
      6347      2089  TIP3      H1            -25.9001125795      -10.0246049003       -3.2924396496  SOLV      2078            0.0000000000
      6348      2089  TIP3      H2            -24.5256281780      -10.2910574981       -2.7381506473  SOLV      2078            0.0000000000
      6349      2090  TIP3      OH2           -39.5741767077      -15.8196508829       -3.5457063241  SOLV      2079            0.0000000000
      6350      2090  TIP3      H1            -39.8095992887      -15.3652442917       -2.7193931498  SOLV      2079            0.0000000000
      6351      2090  TIP3      H2            -39.8637868555      -15.1661560627       -4.2217020486  SOLV      2079            0.0000000000
      6352      2091  TIP3      OH2           -37.5480984075       -9.9563774950        7.1731317977  SOLV      2080            0.0000000000
      6353      2091  TIP3      H1            -36.7832259916       -9.8684943020        7.7843236147  SOLV      2080            0.0000000000
      6354      2091  TIP3      H2            -37.5319349435      -10.9128408232        7.0211517677  SOLV      2080            0.0000000000
      6355      2092  TIP3      OH2           -33.0235785511      -10.6284880241        7.7488079120  SOLV      2081            0.0000000000
      6356      2092  TIP3      H1            -32.0615096025      -10.6789281160        7.8484553328  SOLV      2081            0.0000000000
      6357      2092  TIP3      H2            -33.1684712269      -11.2490794120        7.0081192430  SOLV      2081            0.0000000000
      6358      2093  TIP3      OH2           -33.0944808869      -14.8101492452      -11.0792504039  SOLV      2082            0.0000000000
      6359      2093  TIP3      H1            -33.7031738522      -15.4616829430      -10.6661371112  SOLV      2082            0.0000000000
      6360      2093  TIP3      H2            -32.3733001097      -15.3940013598      -11.3617664867  SOLV      2082            0.0000000000
      6361      2094  TIP3      OH2           -26.5430279219      -11.5138409428        5.0515746331  SOLV      2083            0.0000000000
      6362      2094  TIP3      H1            -26.6329198890      -12.1886895297        5.7633108668  SOLV      2083            0.0000000000
      6363      2094  TIP3      H2            -25.7941612692      -10.9734703875        5.3722027017  SOLV      2083            0.0000000000
      6364      2095  TIP3      OH2           -28.7702892942      -14.4614400178      -11.7791504508  SOLV      2084            0.0000000000
      6365      2095  TIP3      H1            -28.4902785262      -15.2156782861      -11.2078503466  SOLV      2084            0.0000000000
      6366      2095  TIP3      H2            -28.2515566249      -14.5912536624      -12.5907009458  SOLV      2084            0.0000000000
      6367      2096  TIP3      OH2           -36.5409417776      -16.2902897282        9.2002922163  SOLV      2085            0.0000000000
      6368      2096  TIP3      H1            -36.1751869679      -17.1841592004        9.3620409791  SOLV      2085            0.0000000000
      6369      2096  TIP3      H2            -37.3125012645      -16.5134423520        8.6666534468  SOLV      2085            0.0000000000
      6370      2097  TIP3      OH2           -30.4297354835      -15.2725673986        7.0463780131  SOLV      2086            0.0000000000
      6371      2097  TIP3      H1            -30.7632669072      -15.0229654510        6.1606092472  SOLV      2086            0.0000000000
      6372      2097  TIP3      H2            -30.0772208672      -16.1744876671        6.8993440601  SOLV      2086            0.0000000000
      6373      2098  TIP3      OH2           -31.6986733960      -17.6644848023      -10.7145070451  SOLV      2087            0.0000000000
      6374      2098  TIP3      H1            -31.5208913628      -17.5187767356       -9.7591009077  SOLV      2087            0.0000000000
      6375      2098  TIP3      H2            -31.6001189915      -18.6374836142      -10.7696538928  SOLV      2087            0.0000000000
      6376      2099  TIP3      OH2           -25.4823037923      -15.1309570275        3.0976000532  SOLV      2088            0.0000000000
      6377      2099  TIP3      H1            -24.6976974277      -14.7355182832        2.6693174392  SOLV      2088            0.0000000000
      6378      2099  TIP3      H2            -26.1414944073      -14.4232637441        2.9370274614  SOLV      2088            0.0000000000
      6379      2100  TIP3      OH2           -35.4416314350      -18.8414514856        9.1463540677  SOLV      2089            0.0000000000
      6380      2100  TIP3      H1            -34.6919254025      -19.3597642737        8.8236501067  SOLV      2089            0.0000000000
      6381      2100  TIP3      H2            -35.1033273964      -18.5412803921       10.0192739230  SOLV      2089            0.0000000000
      6382      2101  TIP3      OH2           -34.0395839962      -20.7173793028       -6.2598079452  SOLV      2090            0.0000000000
      6383      2101  TIP3      H1            -34.6612093507      -20.8384775997       -5.5246883946  SOLV      2090            0.0000000000
      6384      2101  TIP3      H2            -34.3403777761      -21.3883949428       -6.8814305941  SOLV      2090            0.0000000000
      6385      2102  TIP3      OH2           -31.9609368825      -20.0316353063        5.6669876891  SOLV      2091            0.0000000000
      6386      2102  TIP3      H1            -32.6808167673      -19.3669362961        5.7209335074  SOLV      2091            0.0000000000
      6387      2102  TIP3      H2            -31.3976610858      -19.6513510799        4.9502287349  SOLV      2091            0.0000000000
      6388      2103  TIP3      OH2           -26.7619726670      -15.9492648309        7.0363513478  SOLV      2092            0.0000000000
      6389      2103  TIP3      H1            -25.9402289076      -16.2245577493        6.6129724972  SOLV      2092            0.0000000000
      6390      2103  TIP3      H2            -26.8117006446      -16.5569599392        7.7971439214  SOLV      2092            0.0000000000
      6391      2104  TIP3      OH2           -25.4723598613      -19.3625705675      -11.5655488623  SOLV      2093            0.0000000000
      6392      2104  TIP3      H1            -25.5183066510      -19.8780728948      -12.3925494411  SOLV      2093            0.0000000000
      6393      2104  TIP3      H2            -26.0728001410      -18.6341112580      -11.7599282075  SOLV      2093            0.0000000000
      6394      2105  TIP3      OH2           -30.6637667418      -22.0319689294        6.9803785555  SOLV      2094            0.0000000000
      6395      2105  TIP3      H1            -30.6268671215      -22.8266259205        6.4091423654  SOLV      2094            0.0000000000
      6396      2105  TIP3      H2            -31.1069936388      -21.3815962939        6.3920735063  SOLV      2094            0.0000000000
      6397      2106  TIP3      OH2           -30.6094982201      -24.1470486982        5.0923712426  SOLV      2095            0.0000000000
      6398      2106  TIP3      H1            -30.3192552566      -23.7484968820        4.2486293588  SOLV      2095            0.0000000000
      6399      2106  TIP3      H2            -31.5264193350      -24.4174142254        4.8826288111  SOLV      2095            0.0000000000
      6400      2107  TIP3      OH2           -30.4455383296      -18.8637017351        3.8026535743  SOLV      2096            0.0000000000
      6401      2107  TIP3      H1            -29.5620359743      -18.6874299958        3.4518160474  SOLV      2096            0.0000000000
      6402      2107  TIP3      H2            -30.9880747887      -18.1969694755        3.3293821573  SOLV      2096            0.0000000000
      6403      2108  TIP3      OH2           -24.6212878371      -19.1867193519        7.5527747023  SOLV      2097            0.0000000000
      6404      2108  TIP3      H1            -24.0993875393      -19.9914814430        7.6899023164  SOLV      2097            0.0000000000
      6405      2108  TIP3      H2            -23.9544709877      -18.5585880369        7.2394028573  SOLV      2097            0.0000000000
      6406      2109  TIP3      OH2           -24.1735003371      -16.6607914875        4.9003334728  SOLV      2098            0.0000000000
      6407      2109  TIP3      H1            -24.7618062721      -16.0945640050        4.3452775153  SOLV      2098            0.0000000000
      6408      2109  TIP3      H2            -23.2987619632      -16.4147901540        4.5226174206  SOLV      2098            0.0000000000
      6409      2110  TIP3      OH2           -31.8913270684      -20.9332585746        9.2910271652  SOLV      2099            0.0000000000
      6410      2110  TIP3      H1            -32.5824777509      -21.6139013138        9.4204290237  SOLV      2099            0.0000000000
      6411      2110  TIP3      H2            -31.5231247687      -21.1951503351        8.4243514073  SOLV      2099            0.0000000000
      6412      2111  TIP3      OH2           -29.1804667344      -26.4796002179        5.7621964077  SOLV      2100            0.0000000000
      6413      2111  TIP3      H1            -29.7349904803      -25.6971647921        5.5600071142  SOLV      2100            0.0000000000
      6414      2111  TIP3      H2            -29.8267711909      -27.2094882061        5.6217508997  SOLV      2100            0.0000000000
      6415      2112  TIP3      OH2           -28.0677957548      -21.5718912685        7.9301143052  SOLV      2101            0.0000000000
      6416      2112  TIP3      H1            -28.2297482097      -21.7139287912        8.8815668618  SOLV      2101            0.0000000000
      6417      2112  TIP3      H2            -28.9613136775      -21.7845533177        7.5856816903  SOLV      2101            0.0000000000
      6418      2113  TIP3      OH2           -25.7026042630      -22.0640102182        6.4590136280  SOLV      2102            0.0000000000
      6419      2113  TIP3      H1            -26.4419393674      -22.0320813266        7.0993568113  SOLV      2102            0.0000000000
      6420      2113  TIP3      H2            -24.9518728363      -22.3425034847        7.0197680997  SOLV      2102            0.0000000000
      6421      2114  TIP3      OH2           -23.3355082818      -22.5942100729        7.9250293054  SOLV      2103            0.0000000000
      6422      2114  TIP3      H1            -23.2408911994      -23.5580021773        8.0805743303  SOLV      2103            0.0000000000
      6423      2114  TIP3      H2            -23.4208223814      -22.2407239224        8.8359300631  SOLV      2103            0.0000000000
      6424      2115  TIP3      OH2           -33.6447318045      -22.9662539535        9.8443497859  SOLV      2104            0.0000000000
      6425      2115  TIP3      H1            -33.7218098865      -23.9433598224        9.7584439031  SOLV      2104            0.0000000000
      6426      2115  TIP3      H2            -33.0868551429      -22.9684407814       10.6602801059  SOLV      2104            0.0000000000
      6427      2116  TIP3      OH2           -28.3263823248      -26.4618685669        8.3536207059  SOLV      2105            0.0000000000
      6428      2116  TIP3      H1            -27.7157047050      -27.2171301377        8.2606544067  SOLV      2105            0.0000000000
      6429      2116  TIP3      H2            -28.7365599362      -26.4596406633        7.4646242038  SOLV      2105            0.0000000000
      6430      2117  TIP3      OH2           -27.6926651478      -24.3058164384        9.9032944857  SOLV      2106            0.0000000000
      6431      2117  TIP3      H1            -27.9073206541      -25.0318621772        9.2748043255  SOLV      2106            0.0000000000
      6432      2117  TIP3      H2            -28.4967547578      -23.7479708542        9.8569741354  SOLV      2106            0.0000000000
      6433      2118  TIP3      OH2           -35.5123718725      -12.0822361471       -9.0946517858  SOLV      2107            0.0000000000
      6434      2118  TIP3      H1            -34.5561661174      -12.2074210584       -9.2484920009  SOLV      2107            0.0000000000
      6435      2118  TIP3      H2            -35.7041805136      -11.4657206006       -9.8301442089  SOLV      2107            0.0000000000
      6436      2119  TIP3      OH2           -39.8344638462      -13.6330012354       -1.3347303057  SOLV      2108            0.0000000000
      6437      2119  TIP3      H1            -40.7468955003      -13.9552087806       -1.1497032430  SOLV      2108            0.0000000000
      6438      2119  TIP3      H2            -39.6434022395      -13.0861144629       -0.5529263826  SOLV      2108            0.0000000000
      6439      2120  TIP3      OH2           -22.9086733971       -9.6290023503       -2.8925967470  SOLV      2109            0.0000000000
      6440      2120  TIP3      H1            -22.6761395059       -9.2949174384       -2.0064306442  SOLV      2109            0.0000000000
      6441      2120  TIP3      H2            -22.2860227403       -9.1523795572       -3.4614791169  SOLV      2109            0.0000000000
      6442      2121  TIP3      OH2           -22.6787562788       -9.3955197346       -0.0837159773  SOLV      2110            0.0000000000
      6443      2121  TIP3      H1            -23.0952260983      -10.2829792605       -0.1058458924  SOLV      2110            0.0000000000
      6444      2121  TIP3      H2            -21.9012535633       -9.5906291416        0.4618552799  SOLV      2110            0.0000000000
      6445      2122  TIP3      OH2           -22.1684068700      -12.6483935654        5.6611733331  SOLV      2111            0.0000000000
      6446      2122  TIP3      H1            -22.9042013625      -12.5217694850        6.2950749377  SOLV      2111            0.0000000000
      6447      2122  TIP3      H2            -21.7458052984      -11.7646765299        5.6744627485  SOLV      2111            0.0000000000
      6448      2123  TIP3      OH2           -24.0295925328      -17.5127557284       -8.2063439064  SOLV      2112            0.0000000000
      6449      2123  TIP3      H1            -23.4530879518      -16.7609600504       -8.4722980750  SOLV      2112            0.0000000000
      6450      2123  TIP3      H2            -23.5529232536      -17.8444578526       -7.4121483148  SOLV      2112            0.0000000000
      6451      2124  TIP3      OH2           -22.7494829937      -18.8032945295       -6.1388151335  SOLV      2113            0.0000000000
      6452      2124  TIP3      H1            -23.4153329714      -19.2189726820       -5.5493499211  SOLV      2113            0.0000000000
      6453      2124  TIP3      H2            -22.0889356213      -18.4589986340       -5.5034375840  SOLV      2113            0.0000000000
      6454      2125  TIP3      OH2           -22.1414407206      -14.8652046603       -1.8184206242  SOLV      2114            0.0000000000
      6455      2125  TIP3      H1            -21.6512134805      -15.5566657023       -2.3029966478  SOLV      2114            0.0000000000
      6456      2125  TIP3      H2            -22.1725671437      -14.1366358998       -2.4709576915  SOLV      2114            0.0000000000
      6457      2126  TIP3      OH2           -23.9161471725      -11.9087812098        0.1296683252  SOLV      2115            0.0000000000
      6458      2126  TIP3      H1            -24.6288395219      -11.4563140456        0.6238911308  SOLV      2115            0.0000000000
      6459      2126  TIP3      H2            -24.4098181715      -12.3351541714       -0.6021604952  SOLV      2115            0.0000000000
      6460      2127  TIP3      OH2           -23.3869338729      -19.7846619289       -9.6762552592  SOLV      2116            0.0000000000
      6461      2127  TIP3      H1            -24.1046604216      -19.7287759392      -10.3379216975  SOLV      2116            0.0000000000
      6462      2127  TIP3      H2            -23.6173805766      -19.0198985441       -9.1071941460  SOLV      2116            0.0000000000
      6463      2128  TIP3      OH2           -24.7077993297      -23.1315154409      -10.1115838286  SOLV      2117            0.0000000000
      6464      2128  TIP3      H1            -25.0333994336      -22.7820616799      -10.9496848433  SOLV      2117            0.0000000000
      6465      2128  TIP3      H2            -24.9723582424      -24.0665613188      -10.1988848492  SOLV      2117            0.0000000000
      6466      2129  TIP3      OH2           -24.6241533241      -20.2180081670       -4.6885733746  SOLV      2118            0.0000000000
      6467      2129  TIP3      H1            -24.5365778669      -21.1802986859       -4.7916225129  SOLV      2118            0.0000000000
      6468      2129  TIP3      H2            -24.7736311469      -20.1212539655       -3.7212977912  SOLV      2118            0.0000000000
      6469      2130  TIP3      OH2           -38.3120808512      -19.7889873015        2.9293625315  SOLV      2119            0.0000000000
      6470      2130  TIP3      H1            -38.4233740583      -19.7410392805        1.9662936097  SOLV      2119            0.0000000000
      6471      2130  TIP3      H2            -37.3496519402      -19.6229316001        3.0340420832  SOLV      2119            0.0000000000
      6472      2131  TIP3      OH2           -21.6965769918      -15.9974233171        3.8934722791  SOLV      2120            0.0000000000
      6473      2131  TIP3      H1            -20.9749884667      -16.6426640275        3.7441525684  SOLV      2120            0.0000000000
      6474      2131  TIP3      H2            -21.4699695910      -15.2772981749        3.2793885067  SOLV      2120            0.0000000000
      6475      2132  TIP3      OH2           -19.8636229985      -18.0549815123        3.9107989996  SOLV      2121            0.0000000000
      6476      2132  TIP3      H1            -20.6377167209      -18.4798989546        4.3417683998  SOLV      2121            0.0000000000
      6477      2132  TIP3      H2            -19.1435585478      -18.6337675020        4.2257532633  SOLV      2121            0.0000000000
      6478      2133  TIP3      OH2           -25.3211887266      -25.8803549492      -10.1133961186  SOLV      2122            0.0000000000
      6479      2133  TIP3      H1            -24.3978893730      -25.9583345020       -9.7865067308  SOLV      2122            0.0000000000
      6480      2133  TIP3      H2            -25.8114879330      -25.9543515096       -9.2827739112  SOLV      2122            0.0000000000
      6481      2134  TIP3      OH2           -24.6220721914      -23.0505510119       -5.7855166104  SOLV      2123            0.0000000000
      6482      2134  TIP3      H1            -24.2272559986      -23.9442219020       -5.6370563468  SOLV      2123            0.0000000000
      6483      2134  TIP3      H2            -24.0377309778      -22.7335445179       -6.4994580938  SOLV      2123            0.0000000000
      6484      2135  TIP3      OH2           -23.0419004907      -21.4005217436       -0.7755385512  SOLV      2124            0.0000000000
      6485      2135  TIP3      H1            -22.1865906065      -21.1622185162       -1.1997022631  SOLV      2124            0.0000000000
      6486      2135  TIP3      H2            -22.8941149307      -20.9964003792        0.1018101727  SOLV      2124            0.0000000000
      6487      2136  TIP3      OH2           -22.2969579159      -19.9072751333        1.4876549255  SOLV      2125            0.0000000000
      6488      2136  TIP3      H1            -23.0651835491      -19.5818913676        1.9939949715  SOLV      2125            0.0000000000
      6489      2136  TIP3      H2            -21.9806050567      -19.0813922523        1.0609344689  SOLV      2125            0.0000000000
      6490      2137  TIP3      OH2           -36.2455352000      -22.4092864335        9.3714518174  SOLV      2126            0.0000000000
      6491      2137  TIP3      H1            -35.2689771249      -22.4631287600        9.4100291344  SOLV      2126            0.0000000000
      6492      2137  TIP3      H2            -36.4675076502      -23.1430796828        9.9711419930  SOLV      2126            0.0000000000
      6493      2138  TIP3      OH2           -17.7949567149      -23.9264252890        7.0478960499  SOLV      2127            0.0000000000
      6494      2138  TIP3      H1            -17.2013492691      -24.5916649851        6.6383694848  SOLV      2127            0.0000000000
      6495      2138  TIP3      H2            -18.1323628564      -23.4459883555        6.2623242191  SOLV      2127            0.0000000000
      6496      2139  TIP3      OH2           -23.5684136001      -25.5425542431       -5.3523467740  SOLV      2128            0.0000000000
      6497      2139  TIP3      H1            -23.0805178648      -25.7212420540       -4.5225448915  SOLV      2128            0.0000000000
      6498      2139  TIP3      H2            -24.1738987058      -26.3133296433       -5.3735311719  SOLV      2128            0.0000000000
      6499      2140  TIP3      OH2           -36.3168887142      -25.6889987248        1.8121322493  SOLV      2129            0.0000000000
      6500      2140  TIP3      H1            -36.1969490582      -26.2694308229        2.5807774107  SOLV      2129            0.0000000000
      6501      2140  TIP3      H2            -35.7306911729      -24.9520183389        2.0374724242  SOLV      2129            0.0000000000
      6502      2141  TIP3      OH2           -38.3126265115      -22.4750194922        3.6656400607  SOLV      2130            0.0000000000
      6503      2141  TIP3      H1            -37.8127250524      -22.7000699195        2.8597810240  SOLV      2130            0.0000000000
      6504      2141  TIP3      H2            -38.4313574939      -21.5108861424        3.5273284855  SOLV      2130            0.0000000000
      6505      2142  TIP3      OH2           -19.1636231400      -22.6174289457        5.0823351894  SOLV      2131            0.0000000000
      6506      2142  TIP3      H1            -20.0018681604      -22.2088817688        5.3805001777  SOLV      2131            0.0000000000
      6507      2142  TIP3      H2            -19.5259747749      -23.3419077093        4.5303535080  SOLV      2131            0.0000000000
      6508      2143  TIP3      OH2           -22.8744212360      -26.0889775245       -8.9481135304  SOLV      2132            0.0000000000
      6509      2143  TIP3      H1            -22.5588807867      -26.8726895649       -9.4539154907  SOLV      2132            0.0000000000
      6510      2143  TIP3      H2            -22.1152856471      -25.4741142422       -9.0107627541  SOLV      2132            0.0000000000
      6511      2144  TIP3      OH2           -27.0898479846      -10.9414643615       -6.3777989163  SOLV      2133            0.0000000000
      6512      2144  TIP3      H1            -26.5295035108      -10.9552143679       -7.1792687904  SOLV      2133            0.0000000000
      6513      2144  TIP3      H2            -26.6634462470      -10.2485743169       -5.8405150612  SOLV      2133            0.0000000000
      6514      2145  TIP3      OH2           -36.3529296721      -12.7640562099        7.4814169888  SOLV      2134            0.0000000000
      6515      2145  TIP3      H1            -36.5366536562      -13.6724226708        7.1915454259  SOLV      2134            0.0000000000
      6516      2145  TIP3      H2            -35.9541865571      -12.8904992569        8.3542257682  SOLV      2134            0.0000000000
      6517      2146  TIP3      OH2           -34.2805949571      -12.5014266052        2.9559957655  SOLV      2135            0.0000000000
      6518      2146  TIP3      H1            -34.7412826321      -11.7325933303        2.5548674113  SOLV      2135            0.0000000000
      6519      2146  TIP3      H2            -33.4181852452      -12.3815458418        2.5052295804  SOLV      2135            0.0000000000
      6520      2147  TIP3      OH2           -29.9256683210      -10.1084757254        4.3034835053  SOLV      2136            0.0000000000
      6521      2147  TIP3      H1            -29.5066556039      -10.1257192324        5.1934800073  SOLV      2136            0.0000000000
      6522      2147  TIP3      H2            -29.2623858495       -9.5794508981        3.8095256551  SOLV      2136            0.0000000000
      6523      2148  TIP3      OH2           -28.0928275742       -8.5575749197        2.9733668985  SOLV      2137            0.0000000000
      6524      2148  TIP3      H1            -27.3753759422       -9.0460178913        2.5470683913  SOLV      2137            0.0000000000
      6525      2148  TIP3      H2            -27.5777555292       -7.9913301656        3.5914651594  SOLV      2137            0.0000000000
      6526      2149  TIP3      OH2           -20.1317348040      -24.9975274425        3.9254150855  SOLV      2138            0.0000000000
      6527      2149  TIP3      H1            -21.0309148215      -25.1051410813        3.5669894541  SOLV      2138            0.0000000000
      6528      2149  TIP3      H2            -19.7916789484      -25.9193862143        3.8495999976  SOLV      2138            0.0000000000
      6529      2150  TIP3      OH2           -37.4986180201      -10.0507669974        3.3112506725  SOLV      2139            0.0000000000
      6530      2150  TIP3      H1            -38.3123462241       -9.8526485344        2.8304628294  SOLV      2139            0.0000000000
      6531      2150  TIP3      H2            -37.5585086883       -9.4414079691        4.0636272894  SOLV      2139            0.0000000000
      6532      2151  TIP3      OH2           -35.1556514842      -10.1963639737        1.7892090638  SOLV      2140            0.0000000000
      6533      2151  TIP3      H1            -36.0136369597      -10.0491128454        2.2404737532  SOLV      2140            0.0000000000
      6534      2151  TIP3      H2            -35.3648091989       -9.9501972677        0.8655892249  SOLV      2140            0.0000000000
      6535      2152  TIP3      OH2           -30.9414605176       -9.9460024006       -0.2159775238  SOLV      2141            0.0000000000
      6536      2152  TIP3      H1            -31.6282179598       -9.7647964721       -0.8857884346  SOLV      2141            0.0000000000
      6537      2152  TIP3      H2            -30.8232838037       -9.0587586609        0.1850115655  SOLV      2141            0.0000000000
      6538      2153  TIP3      OH2           -28.2393761118      -10.5701063008        0.2929406846  SOLV      2142            0.0000000000
      6539      2153  TIP3      H1            -29.1744677107      -10.3521390609        0.1079054640  SOLV      2142            0.0000000000
      6540      2153  TIP3      H2            -27.7779498141       -9.8300605076       -0.1384286210  SOLV      2142            0.0000000000
      6541      2154  TIP3      OH2           -26.2314274250       -8.6512145569       -0.6001443562  SOLV      2143            0.0000000000
      6542      2154  TIP3      H1            -26.3466252489       -7.7925364199       -1.0626111241  SOLV      2143            0.0000000000
      6543      2154  TIP3      H2            -25.9328881937       -9.2321098380       -1.3335040463  SOLV      2143            0.0000000000
      6544      2155  TIP3      OH2           -38.4070548927      -12.0500025842        0.6564088133  SOLV      2144            0.0000000000
      6545      2155  TIP3      H1            -38.2047172999      -12.3330964974        1.5713442709  SOLV      2144            0.0000000000
      6546      2155  TIP3      H2            -37.6874289869      -12.5101984850        0.1712715006  SOLV      2144            0.0000000000
      6547      2156  TIP3      OH2           -36.4302588040      -13.3029207231       -0.7312783143  SOLV      2145            0.0000000000
      6548      2156  TIP3      H1            -36.2971300513      -14.1452092505       -0.2370399482  SOLV      2145            0.0000000000
      6549      2156  TIP3      H2            -35.5151797887      -12.9496977370       -0.7606970901  SOLV      2145            0.0000000000
      6550      2157  TIP3      OH2           -33.7889822619      -12.4348639162       -0.6899934016  SOLV      2146            0.0000000000
      6551      2157  TIP3      H1            -33.4781359761      -13.3551423685       -0.7732873382  SOLV      2146            0.0000000000
      6552      2157  TIP3      H2            -33.2992038874      -12.1669583579        0.1112415114  SOLV      2146            0.0000000000
      6553      2158  TIP3      OH2           -28.0676000910      -25.8135771456        0.1712876861  SOLV      2147            0.0000000000
      6554      2158  TIP3      H1            -28.5068509697      -26.5403764079        0.6502805776  SOLV      2147            0.0000000000
      6555      2158  TIP3      H2            -27.3381266460      -26.2727120721       -0.2883038228  SOLV      2147            0.0000000000
      6556      2159  TIP3      OH2           -22.8915938352      -26.9730806912       -0.7850063975  SOLV      2148            0.0000000000
      6557      2159  TIP3      H1            -22.5333184665      -26.4955031376       -1.5666210686  SOLV      2148            0.0000000000
      6558      2159  TIP3      H2            -23.8499786645      -26.8274711578       -0.8881339484  SOLV      2148            0.0000000000
      6559      2160  TIP3      OH2           -21.9416820773      -26.0674901936       -3.1725401041  SOLV      2149            0.0000000000
      6560      2160  TIP3      H1            -21.2054655559      -26.5829124421       -3.5688734886  SOLV      2149            0.0000000000
      6561      2160  TIP3      H2            -21.5951064987      -25.1539768779       -3.3112321757  SOLV      2149            0.0000000000
      6562      2161  TIP3      OH2           -31.1278587678      -28.0522948667       -0.8407654789  SOLV      2150            0.0000000000
      6563      2161  TIP3      H1            -30.5510792595      -27.6180432657       -1.4934919116  SOLV      2150            0.0000000000
      6564      2161  TIP3      H2            -30.6765438507      -27.8550139796       -0.0040392915  SOLV      2150            0.0000000000
      6565      2162  TIP3      OH2           -25.7337701058      -26.9392668465       -1.0836534245  SOLV      2151            0.0000000000
      6566      2162  TIP3      H1            -25.6902463615      -27.3355451410       -1.9643762527  SOLV      2151            0.0000000000
      6567      2162  TIP3      H2            -25.8572670432      -27.7370114465       -0.5166246001  SOLV      2151            0.0000000000
      6568      2163  TIP3      OH2           -25.4054567869      -27.6494821676       -5.3511795473  SOLV      2152            0.0000000000
      6569      2163  TIP3      H1            -26.2598496097      -27.2128612502       -5.1696478170  SOLV      2152            0.0000000000
      6570      2163  TIP3      H2            -25.5414326732      -28.5104814041       -4.9080262677  SOLV      2152            0.0000000000
      6571      2164  TIP3      OH2           -40.5844249442      -14.1947222066       -5.4912444539  SOLV      2153            0.0000000000
      6572      2164  TIP3      H1            -41.3802457669      -14.5662158672       -5.8970938109  SOLV      2153            0.0000000000
      6573      2164  TIP3      H2            -40.6305585177      -13.2638724298       -5.7937701790  SOLV      2153            0.0000000000
      6574      2165  TIP3      OH2           -31.4588700538      -26.7950165257       -4.4175121761  SOLV      2154            0.0000000000
      6575      2165  TIP3      H1            -30.7838692862      -27.1235760081       -3.8066665173  SOLV      2154            0.0000000000
      6576      2165  TIP3      H2            -31.2247027255      -25.8519159411       -4.4388080568  SOLV      2154            0.0000000000
      6577      2166  TIP3      OH2           -32.8418571238      -12.4978918129       -9.6215847928  SOLV      2155            0.0000000000
      6578      2166  TIP3      H1            -31.9599759271      -12.2437708740       -9.9649734500  SOLV      2155            0.0000000000
      6579      2166  TIP3      H2            -33.0323078118      -13.2394757308      -10.2402613582  SOLV      2155            0.0000000000
      6580      2167  TIP3      OH2           -25.6033599364      -11.3050271115       -8.7235792066  SOLV      2156            0.0000000000
      6581      2167  TIP3      H1            -25.6572829354      -12.2658337730       -8.9055815808  SOLV      2156            0.0000000000
      6582      2167  TIP3      H2            -26.1158408653      -10.9416532944       -9.4752765753  SOLV      2156            0.0000000000
      6583      2168  TIP3      OH2            23.2957119084       31.2703002905      -18.6756980741  SOLV      2157            0.0000000000
      6584      2168  TIP3      H1             23.0049114026       30.5949001944      -18.0446272098  SOLV      2157            0.0000000000
      6585      2168  TIP3      H2             24.2645226507       31.1244897100      -18.6363563477  SOLV      2157            0.0000000000
      6586      2169  TIP3      OH2           -31.0120286281      -26.1949718039       10.5613952910  SOLV      2158            0.0000000000
      6587      2169  TIP3      H1            -30.1522832648      -26.3735333673       10.1478756136  SOLV      2158            0.0000000000
      6588      2169  TIP3      H2            -31.1282829740      -27.0196707596       11.0596877534  SOLV      2158            0.0000000000
      6589      2170  TIP3      OH2           -39.1193195144      -13.3777753227       -8.5739399313  SOLV      2159            0.0000000000
      6590      2170  TIP3      H1            -39.3754153662      -13.1600902078       -7.6652921398  SOLV      2159            0.0000000000
      6591      2170  TIP3      H2            -38.2351947854      -13.7751366612       -8.4778671746  SOLV      2159            0.0000000000
      6592      2171  TIP3      OH2           -22.7439388309      -25.3214168070        8.2464005938  SOLV      2160            0.0000000000
      6593      2171  TIP3      H1            -22.5869118658      -25.6260606893        9.1671845031  SOLV      2160            0.0000000000
      6594      2171  TIP3      H2            -21.8443489964      -25.3871072630        7.8635810749  SOLV      2160            0.0000000000
      6595      2172  TIP3      OH2           -23.4122154320       -9.8305229790        3.1571762511  SOLV      2161            0.0000000000
      6596      2172  TIP3      H1            -24.1993594126      -10.1118571395        2.6486419660  SOLV      2161            0.0000000000
      6597      2172  TIP3      H2            -23.5928788365       -8.8715592019        3.2441816546  SOLV      2161            0.0000000000
      6598      2173  TIP3      OH2           -10.6906307473      -16.0773146349       -9.2090707529  SOLV      2162            0.0000000000
      6599      2173  TIP3      H1            -11.0024239442      -15.1671974537       -9.3828618460  SOLV      2162            0.0000000000
      6600      2173  TIP3      H2            -11.4529657751      -16.5859720236       -9.5398852203  SOLV      2162            0.0000000000
      6601      2174  TIP3      OH2           -10.6611054851      -16.1191691770       -5.3497091580  SOLV      2163            0.0000000000
      6602      2174  TIP3      H1            -10.3558456605      -16.2999473402       -4.4420033486  SOLV      2163            0.0000000000
      6603      2174  TIP3      H2            -11.1407407327      -16.9323256312       -5.5711332682  SOLV      2163            0.0000000000
      6604      2175  TIP3      OH2           -17.7586558482      -17.1199437290       -1.7149901520  SOLV      2164            0.0000000000
      6605      2175  TIP3      H1            -17.4156360917      -17.8405605225       -1.1581719977  SOLV      2164            0.0000000000
      6606      2175  TIP3      H2            -16.9551639404      -16.6019930743       -1.8692376486  SOLV      2164            0.0000000000
      6607      2176  TIP3      OH2            -8.2414085281      -13.0244320946       -8.5072543774  SOLV      2165            0.0000000000
      6608      2176  TIP3      H1             -8.4606412585      -13.6602102193       -7.8137017618  SOLV      2165            0.0000000000
      6609      2176  TIP3      H2             -7.9540607802      -12.2491652709       -7.9890295207  SOLV      2165            0.0000000000
      6610      2177  TIP3      OH2           -18.0096525625      -13.0413309896       -4.5094686624  SOLV      2166            0.0000000000
      6611      2177  TIP3      H1            -18.0664129247      -14.0207509905       -4.5121429042  SOLV      2166            0.0000000000
      6612      2177  TIP3      H2            -17.0433453921      -12.9220929800       -4.5398662717  SOLV      2166            0.0000000000
      6613      2178  TIP3      OH2           -20.9844255517      -21.0823516055       -6.6104375899  SOLV      2167            0.0000000000
      6614      2178  TIP3      H1            -21.4400701547      -20.2364053106       -6.4634571571  SOLV      2167            0.0000000000
      6615      2178  TIP3      H2            -21.6806032033      -21.5803996321       -7.0749865088  SOLV      2167            0.0000000000
      6616      2179  TIP3      OH2           -20.3920130930      -18.1768792219       -4.8412701414  SOLV      2168            0.0000000000
      6617      2179  TIP3      H1            -19.8940680060      -18.9609590392       -4.5199442484  SOLV      2168            0.0000000000
      6618      2179  TIP3      H2            -19.8173052763      -17.8573216853       -5.5505166272  SOLV      2168            0.0000000000
      6619      2180  TIP3      OH2           -11.7699331115       -8.4501549463       -8.3551020973  SOLV      2169            0.0000000000
      6620      2180  TIP3      H1            -11.3444069954       -9.1909520991       -8.8305837493  SOLV      2169            0.0000000000
      6621      2180  TIP3      H2            -11.8410910151       -8.7992361524       -7.4574738655  SOLV      2169            0.0000000000
      6622      2181  TIP3      OH2           -12.7680317825      -13.8331246060       -4.8514873917  SOLV      2170            0.0000000000
      6623      2181  TIP3      H1            -12.3389617197      -14.5623418261       -5.3265349162  SOLV      2170            0.0000000000
      6624      2181  TIP3      H2            -11.9557881492      -13.3572352339       -4.5659965952  SOLV      2170            0.0000000000
      6625      2182  TIP3      OH2            -2.5490531463      -20.6423898639       -4.8643630714  SOLV      2171            0.0000000000
      6626      2182  TIP3      H1             -2.2711739610      -19.8006187566       -4.4500653537  SOLV      2171            0.0000000000
      6627      2182  TIP3      H2             -2.3898818681      -20.4502601322       -5.8044420095  SOLV      2171            0.0000000000
      6628      2183  TIP3      OH2            -8.5968602269      -18.8611816038       -4.5726230897  SOLV      2172            0.0000000000
      6629      2183  TIP3      H1             -8.1901089011      -19.7272199710       -4.3840723397  SOLV      2172            0.0000000000
      6630      2183  TIP3      H2             -8.9469480769      -19.0116287428       -5.4718919480  SOLV      2172            0.0000000000
      6631      2184  TIP3      OH2           -15.1692280994      -22.2452972708       -4.9526398458  SOLV      2173            0.0000000000
      6632      2184  TIP3      H1            -15.4141761218      -21.5237420118       -5.5756800791  SOLV      2173            0.0000000000
      6633      2184  TIP3      H2            -15.6403628245      -22.9896441476       -5.3908303027  SOLV      2173            0.0000000000
      6634      2185  TIP3      OH2            -8.2446319769      -21.3088956566       -8.7023624331  SOLV      2174            0.0000000000
      6635      2185  TIP3      H1             -7.5371535113      -21.4478604419       -8.0313321634  SOLV      2174            0.0000000000
      6636      2185  TIP3      H2             -7.7151811509      -20.9459259966       -9.4363128288  SOLV      2174            0.0000000000
      6637      2186  TIP3      OH2           -18.9116414215      -20.2331368497       -3.7865495667  SOLV      2175            0.0000000000
      6638      2186  TIP3      H1            -18.0569918818      -20.3913809379       -3.3469132686  SOLV      2175            0.0000000000
      6639      2186  TIP3      H2            -18.7816009063      -20.7791621173       -4.5957962521  SOLV      2175            0.0000000000
      6640      2187  TIP3      OH2           -14.5288500721      -18.2616803234       -5.8122630010  SOLV      2176            0.0000000000
      6641      2187  TIP3      H1            -13.5812208900      -18.5007279516       -5.7490996744  SOLV      2176            0.0000000000
      6642      2187  TIP3      H2            -14.9139968971      -19.0726421234       -6.2113703674  SOLV      2176            0.0000000000
      6643      2188  TIP3      OH2            -1.8436908318      -18.5328757539       -3.1695762781  SOLV      2177            0.0000000000
      6644      2188  TIP3      H1             -2.6832972901      -18.0737282733       -3.3869432339  SOLV      2177            0.0000000000
      6645      2188  TIP3      H2             -1.6410654665      -18.1341313900       -2.3068305307  SOLV      2177            0.0000000000
      6646      2189  TIP3      OH2           -15.2996350023      -22.3548593995       -0.5068733962  SOLV      2178            0.0000000000
      6647      2189  TIP3      H1            -15.8510910599      -21.9970692828       -1.2313617174  SOLV      2178            0.0000000000
      6648      2189  TIP3      H2            -15.8630146751      -22.1905787607        0.2639508685  SOLV      2178            0.0000000000
      6649      2190  TIP3      OH2           -11.7741739830      -13.8445966175      -10.5396110957  SOLV      2179            0.0000000000
      6650      2190  TIP3      H1            -12.2664179124      -14.0163277343      -11.3543062775  SOLV      2179            0.0000000000
      6651      2190  TIP3      H2            -12.2486288761      -13.0506351436      -10.2083225633  SOLV      2179            0.0000000000
      6652      2191  TIP3      OH2           -14.1897628806      -14.6443486951       -2.6226455035  SOLV      2180            0.0000000000
      6653      2191  TIP3      H1            -14.7657121913      -13.9297692294       -2.2677915945  SOLV      2180            0.0000000000
      6654      2191  TIP3      H2            -13.7437369422      -14.1825394604       -3.3646332717  SOLV      2180            0.0000000000
      6655      2192  TIP3      OH2            -6.2113741462      -21.2577363666       -6.8941641218  SOLV      2181            0.0000000000
      6656      2192  TIP3      H1             -6.4807852426      -21.6357575982       -6.0450395292  SOLV      2181            0.0000000000
      6657      2192  TIP3      H2             -5.7272160664      -20.4555085406       -6.6143717180  SOLV      2181            0.0000000000
      6658      2193  TIP3      OH2           -16.5088020866      -21.2663064897       -2.7391146975  SOLV      2182            0.0000000000
      6659      2193  TIP3      H1            -15.8892169549      -20.5333985318       -2.5222303819  SOLV      2182            0.0000000000
      6660      2193  TIP3      H2            -16.0490012265      -21.6485064423       -3.5220945735  SOLV      2182            0.0000000000
      6661      2194  TIP3      OH2           -15.8968379760      -12.6542823993       -1.6514105650  SOLV      2183            0.0000000000
      6662      2194  TIP3      H1            -16.1210339597      -11.7658891634       -2.0006369016  SOLV      2183            0.0000000000
      6663      2194  TIP3      H2            -16.7062876310      -12.8202178832       -1.1211458421  SOLV      2183            0.0000000000
      6664      2195  TIP3      OH2           -22.2174259812      -15.5908665111       -9.0707931289  SOLV      2184            0.0000000000
      6665      2195  TIP3      H1            -21.6563776520      -15.7549800424       -9.8513243390  SOLV      2184            0.0000000000
      6666      2195  TIP3      H2            -21.8014116179      -14.7858562946       -8.7032388267  SOLV      2184            0.0000000000
      6667      2196  TIP3      OH2            -7.6201742388      -10.6348282940       -6.9489597703  SOLV      2185            0.0000000000
      6668      2196  TIP3      H1             -8.5017416612      -10.7118994328       -6.5141285114  SOLV      2185            0.0000000000
      6669      2196  TIP3      H2             -7.6899734664       -9.7426964292       -7.3462942206  SOLV      2185            0.0000000000
      6670      2197  TIP3      OH2            -4.6506793843      -21.6847032737       -3.2401428553  SOLV      2186            0.0000000000
      6671      2197  TIP3      H1             -5.5247313045      -21.4077192641       -3.5633377029  SOLV      2186            0.0000000000
      6672      2197  TIP3      H2             -4.0512274990      -21.3229450667       -3.9250023503  SOLV      2186            0.0000000000
      6673      2198  TIP3      OH2           -11.7046638550      -25.2278387681       -3.3205415645  SOLV      2187            0.0000000000
      6674      2198  TIP3      H1            -11.9252610038      -26.1744421153       -3.2384519550  SOLV      2187            0.0000000000
      6675      2198  TIP3      H2            -12.4901300961      -24.8274248994       -2.8876774621  SOLV      2187            0.0000000000
      6676      2199  TIP3      OH2           -10.6003034598      -10.2158207496      -10.1892292576  SOLV      2188            0.0000000000
      6677      2199  TIP3      H1            -10.0782129135      -11.0313360756      -10.3611390023  SOLV      2188            0.0000000000
      6678      2199  TIP3      H2             -9.9787107836       -9.5512366342      -10.5657946612  SOLV      2188            0.0000000000
      6679      2200  TIP3      OH2            -9.1167926840      -12.3748220967      -11.0345221334  SOLV      2189            0.0000000000
      6680      2200  TIP3      H1             -9.7007793298      -13.1190700212      -11.2326882715  SOLV      2189            0.0000000000
      6681      2200  TIP3      H2             -8.7084794248      -12.6669745360      -10.1884489751  SOLV      2189            0.0000000000
      6682      2201  TIP3      OH2            -5.3256780438      -11.5579695110       -3.3989532187  SOLV      2190            0.0000000000
      6683      2201  TIP3      H1             -5.4735557554      -12.2980847504       -4.0236031051  SOLV      2190            0.0000000000
      6684      2201  TIP3      H2             -5.5339769993      -10.7788712572       -3.9619342602  SOLV      2190            0.0000000000
      6685      2202  TIP3      OH2           -12.3913420876      -17.5623892909      -10.8228908954  SOLV      2191            0.0000000000
      6686      2202  TIP3      H1            -13.2475926613      -17.1140262962      -10.9813878886  SOLV      2191            0.0000000000
      6687      2202  TIP3      H2            -12.0051283285      -17.5780543537      -11.7127209819  SOLV      2191            0.0000000000
      6688      2203  TIP3      OH2           -12.7449716870      -19.5294483524      -13.8369002218  SOLV      2192            0.0000000000
      6689      2203  TIP3      H1            -12.0443463018      -19.0630138883      -13.3423878117  SOLV      2192            0.0000000000
      6690      2203  TIP3      H2            -12.2295194754      -20.2522876943      -14.2434847940  SOLV      2192            0.0000000000
      6691      2204  TIP3      OH2            -3.3810833346      -15.1300585180       -4.9564899874  SOLV      2193            0.0000000000
      6692      2204  TIP3      H1             -4.2263027255      -14.6252985030       -4.9229013990  SOLV      2193            0.0000000000
      6693      2204  TIP3      H2             -3.0708010565      -14.8672819486       -5.8520982425  SOLV      2193            0.0000000000
      6694      2205  TIP3      OH2            -8.9026480529      -16.7183482502      -11.1572122942  SOLV      2194            0.0000000000
      6695      2205  TIP3      H1             -9.4646265398      -16.4856002499      -10.3796327207  SOLV      2194            0.0000000000
      6696      2205  TIP3      H2             -8.0607243802      -16.9371123304      -10.7069944434  SOLV      2194            0.0000000000
      6697      2206  TIP3      OH2            -6.6019010976      -16.3740400797       -1.9671861207  SOLV      2195            0.0000000000
      6698      2206  TIP3      H1             -6.6164635321      -15.5295078456       -1.4756759740  SOLV      2195            0.0000000000
      6699      2206  TIP3      H2             -7.4658670599      -16.3234172809       -2.4248986550  SOLV      2195            0.0000000000
      6700      2207  TIP3      OH2           -16.6309248251      -16.8608761907       -6.9979230624  SOLV      2196            0.0000000000
      6701      2207  TIP3      H1            -16.8561782970      -17.3990779743       -7.7974855698  SOLV      2196            0.0000000000
      6702      2207  TIP3      H2            -15.8529498775      -17.3549198872       -6.6729306625  SOLV      2196            0.0000000000
      6703      2208  TIP3      OH2           -15.3134482033      -12.6518747135       -5.4971941314  SOLV      2197            0.0000000000
      6704      2208  TIP3      H1            -15.4853555088      -13.0078474436       -6.3818711346  SOLV      2197            0.0000000000
      6705      2208  TIP3      H2            -14.4301780291      -13.0249588320       -5.2953088553  SOLV      2197            0.0000000000
      6706      2209  TIP3      OH2           -15.2777087085      -17.0685728092       -3.3897475419  SOLV      2198            0.0000000000
      6707      2209  TIP3      H1            -14.9714653463      -17.3295344337       -4.2856588335  SOLV      2198            0.0000000000
      6708      2209  TIP3      H2            -14.8347323978      -16.2027405594       -3.2554922785  SOLV      2198            0.0000000000
      6709      2210  TIP3      OH2            -9.9879904151      -10.7086548887       -5.6652156954  SOLV      2199            0.0000000000
      6710      2210  TIP3      H1            -10.1163837732       -9.8542586095       -5.2065464910  SOLV      2199            0.0000000000
      6711      2210  TIP3      H2            -10.1818877095      -11.3604877639       -4.9667206913  SOLV      2199            0.0000000000
      6712      2211  TIP3      OH2           -13.7997188069      -11.5746583401       -0.1342794632  SOLV      2200            0.0000000000
      6713      2211  TIP3      H1            -14.3377935989      -10.9350903064        0.3831783955  SOLV      2200            0.0000000000
      6714      2211  TIP3      H2            -14.5006378692      -12.0299849800       -0.6405073289  SOLV      2200            0.0000000000
      6715      2212  TIP3      OH2           -10.4856838491      -18.1702217076      -12.8764485485  SOLV      2201            0.0000000000
      6716      2212  TIP3      H1             -9.9309615240      -17.5327687633      -12.3713688536  SOLV      2201            0.0000000000
      6717      2212  TIP3      H2            -10.2178395646      -17.9576330760      -13.8035393871  SOLV      2201            0.0000000000
      6718      2213  TIP3      OH2           -16.3325039575      -16.0449956340        0.9695357627  SOLV      2202            0.0000000000
      6719      2213  TIP3      H1            -16.2517369341      -15.1211269053        1.2922014185  SOLV      2202            0.0000000000
      6720      2213  TIP3      H2            -17.3033126705      -16.1587793332        1.0407795037  SOLV      2202            0.0000000000
      6721      2214  TIP3      OH2           -13.0667677842      -11.4203919375      -10.1622526131  SOLV      2203            0.0000000000
      6722      2214  TIP3      H1            -12.2383749241      -10.9086327612      -10.0681920288  SOLV      2203            0.0000000000
      6723      2214  TIP3      H2            -13.6813546054      -10.7563903032      -10.4978733319  SOLV      2203            0.0000000000
      6724      2215  TIP3      OH2           -15.9310905041       -9.9127544405        0.6831982466  SOLV      2204            0.0000000000
      6725      2215  TIP3      H1            -16.2824328800       -9.8143761439       -0.2185521750  SOLV      2204            0.0000000000
      6726      2215  TIP3      H2            -16.7366238376      -10.1126866411        1.2072016604  SOLV      2204            0.0000000000
      6727      2216  TIP3      OH2            -5.4042200263      -25.8195193347      -12.3952437020  SOLV      2205            0.0000000000
      6728      2216  TIP3      H1             -6.2121651125      -25.5894012825      -11.8882843824  SOLV      2205            0.0000000000
      6729      2216  TIP3      H2             -5.2302307935      -24.9711245948      -12.8542241347  SOLV      2205            0.0000000000
      6730      2217  TIP3      OH2            -7.3812880010      -12.1189117096      -16.9220478716  SOLV      2206            0.0000000000
      6731      2217  TIP3      H1             -7.2977276224      -11.1475100225      -17.0411116598  SOLV      2206            0.0000000000
      6732      2217  TIP3      H2             -6.4471125325      -12.3997714699      -17.0291870104  SOLV      2206            0.0000000000
      6733      2218  TIP3      OH2           -20.1665976956      -14.5249778137        0.1816704366  SOLV      2207            0.0000000000
      6734      2218  TIP3      H1            -20.8407533004      -14.6747848790       -0.5142155465  SOLV      2207            0.0000000000
      6735      2218  TIP3      H2            -19.7722135470      -15.4094654906        0.2970973896  SOLV      2207            0.0000000000
      6736      2219  TIP3      OH2           -21.5931588419      -12.5693858289       -3.5277531456  SOLV      2208            0.0000000000
      6737      2219  TIP3      H1            -20.6288134415      -12.6046429527       -3.6014141186  SOLV      2208            0.0000000000
      6738      2219  TIP3      H2            -21.7084315821      -11.7808705884       -2.9737053020  SOLV      2208            0.0000000000
      6739      2220  TIP3      OH2            -2.9453693694       -8.1759473998       -2.9674617191  SOLV      2209            0.0000000000
      6740      2220  TIP3      H1             -3.0382070894       -9.0990479556       -2.6862737220  SOLV      2209            0.0000000000
      6741      2220  TIP3      H2             -3.7414141095       -7.7761065082       -2.5514607995  SOLV      2209            0.0000000000
      6742      2221  TIP3      OH2           -11.9312511713      -10.1328445702       -1.5768841828  SOLV      2210            0.0000000000
      6743      2221  TIP3      H1            -11.8566665994       -9.2579097632       -1.1339285429  SOLV      2210            0.0000000000
      6744      2221  TIP3      H2            -12.5993143621      -10.5667499103       -1.0028979369  SOLV      2210            0.0000000000
      6745      2222  TIP3      OH2           -14.2492342517       -8.9387514093      -12.0894760504  SOLV      2211            0.0000000000
      6746      2222  TIP3      H1            -14.7435160654       -9.0495797357      -12.9189170603  SOLV      2211            0.0000000000
      6747      2222  TIP3      H2            -14.5764291354       -8.0759860438      -11.7671541983  SOLV      2211            0.0000000000
      6748      2223  TIP3      OH2           -19.9020454816      -10.4364666033       -8.1985383728  SOLV      2212            0.0000000000
      6749      2223  TIP3      H1            -19.3979241147      -10.5047630244       -7.3565008916  SOLV      2212            0.0000000000
      6750      2223  TIP3      H2            -20.4198549712      -11.2621120988       -8.1645078494  SOLV      2212            0.0000000000
      6751      2224  TIP3      OH2           -12.2974830736       -9.9068789960      -15.7225126587  SOLV      2213            0.0000000000
      6752      2224  TIP3      H1            -11.6948053828      -10.6030417628      -16.0614155172  SOLV      2213            0.0000000000
      6753      2224  TIP3      H2            -11.9489479059       -9.7734562035      -14.8140903920  SOLV      2213            0.0000000000
      6754      2225  TIP3      OH2           -11.7560681627       -9.4220732514      -13.0411033228  SOLV      2214            0.0000000000
      6755      2225  TIP3      H1            -12.6348492125       -9.3233305550      -12.6099033632  SOLV      2214            0.0000000000
      6756      2225  TIP3      H2            -11.2186449926       -9.7346020107      -12.2944527977  SOLV      2214            0.0000000000
      6757      2226  TIP3      OH2            -4.0719944150      -16.7865502209       -0.1624710224  SOLV      2215            0.0000000000
      6758      2226  TIP3      H1             -4.8968557436      -16.6254221440       -0.6449513032  SOLV      2215            0.0000000000
      6759      2226  TIP3      H2             -3.9368301730      -17.7439257191       -0.3099296540  SOLV      2215            0.0000000000
      6760      2227  TIP3      OH2           -18.1156937919      -12.6993828659       -0.0506219890  SOLV      2216            0.0000000000
      6761      2227  TIP3      H1            -17.6379226016      -12.7886520783        0.7957931028  SOLV      2216            0.0000000000
      6762      2227  TIP3      H2            -18.8660300119      -13.3153833079        0.0719991436  SOLV      2216            0.0000000000
      6763      2228  TIP3      OH2           -14.1014715181      -24.4650853548       -2.0901526586  SOLV      2217            0.0000000000
      6764      2228  TIP3      H1            -14.9862102940      -24.7576791669       -2.3969286575  SOLV      2217            0.0000000000
      6765      2228  TIP3      H2            -14.3526247575      -23.6356655650       -1.6430169281  SOLV      2217            0.0000000000
      6766      2229  TIP3      OH2            -8.7443657241      -23.3063332507       -0.1542140559  SOLV      2218            0.0000000000
      6767      2229  TIP3      H1             -8.0560320451      -23.5936033424        0.4784409113  SOLV      2218            0.0000000000
      6768      2229  TIP3      H2             -9.5772867386      -23.5138774030        0.3157438896  SOLV      2218            0.0000000000
      6769      2230  TIP3      OH2            -6.3651961907      -18.9846016470       -1.0491995161  SOLV      2219            0.0000000000
      6770      2230  TIP3      H1             -6.8761664212      -19.0275933917       -0.2085356954  SOLV      2219            0.0000000000
      6771      2230  TIP3      H2             -6.5973037506      -18.0984570568       -1.3918466025  SOLV      2219            0.0000000000
      6772      2231  TIP3      OH2            -9.7719794271      -17.8070194389      -15.4533600982  SOLV      2220            0.0000000000
      6773      2231  TIP3      H1            -10.1199170451      -17.9902623982      -16.3449343491  SOLV      2220            0.0000000000
      6774      2231  TIP3      H2             -8.9591213662      -17.3091752398      -15.6677563655  SOLV      2220            0.0000000000
      6775      2232  TIP3      OH2           -12.5796804310      -24.0026687839      -12.4099388472  SOLV      2221            0.0000000000
      6776      2232  TIP3      H1            -12.9446937636      -24.0289903985      -11.5002284695  SOLV      2221            0.0000000000
      6777      2232  TIP3      H2            -13.0533570139      -24.7705403026      -12.7889620640  SOLV      2221            0.0000000000
      6778      2233  TIP3      OH2           -14.7659360368      -19.2880802647       -1.9246198195  SOLV      2222            0.0000000000
      6779      2233  TIP3      H1            -15.2810792626      -19.0733831452       -1.1195388246  SOLV      2222            0.0000000000
      6780      2233  TIP3      H2            -14.9115830643      -18.4735983334       -2.4592102201  SOLV      2222            0.0000000000
      6781      2234  TIP3      OH2           -15.9193463979      -20.4409194420       -6.7990569021  SOLV      2223            0.0000000000
      6782      2234  TIP3      H1            -16.8821863467      -20.5455568662       -6.6728026579  SOLV      2223            0.0000000000
      6783      2234  TIP3      H2            -15.8621286348      -20.6436576968       -7.7552218009  SOLV      2223            0.0000000000
      6784      2235  TIP3      OH2           -11.0223330108      -19.5374307831       -9.4564491470  SOLV      2224            0.0000000000
      6785      2235  TIP3      H1            -11.5390401335      -18.8256563065       -9.8960368729  SOLV      2224            0.0000000000
      6786      2235  TIP3      H2            -10.5067884222      -19.8955761311      -10.2043771255  SOLV      2224            0.0000000000
      6787      2236  TIP3      OH2            -9.1825997488      -16.8192726217        1.1750595487  SOLV      2225            0.0000000000
      6788      2236  TIP3      H1             -9.2801839274      -17.5148422567        1.8560606757  SOLV      2225            0.0000000000
      6789      2236  TIP3      H2             -8.2968490023      -16.4848931789        1.3972646815  SOLV      2225            0.0000000000
      6790      2237  TIP3      OH2            -9.4974110400      -19.3192951061       -7.1192445371  SOLV      2226            0.0000000000
      6791      2237  TIP3      H1            -10.1263463845      -19.0167158102       -7.8078679520  SOLV      2226            0.0000000000
      6792      2237  TIP3      H2             -9.1489558305      -20.1048895190       -7.5891597692  SOLV      2226            0.0000000000
      6793      2238  TIP3      OH2           -16.5935447320      -18.9485364229        0.1120856325  SOLV      2227            0.0000000000
      6794      2238  TIP3      H1            -16.5362935629      -18.1672289765        0.6878540046  SOLV      2227            0.0000000000
      6795      2238  TIP3      H2            -16.8091756618      -19.6657470632        0.7273827379  SOLV      2227            0.0000000000
      6796      2239  TIP3      OH2           -16.1147318558      -24.2615260303      -12.6341921648  SOLV      2228            0.0000000000
      6797      2239  TIP3      H1            -16.2593375552      -24.3748115929      -11.6711712234  SOLV      2228            0.0000000000
      6798      2239  TIP3      H2            -16.7697767372      -23.5823540277      -12.8386374846  SOLV      2228            0.0000000000
      6799      2240  TIP3      OH2           -20.6862333675      -23.8187013857       -3.9316852435  SOLV      2229            0.0000000000
      6800      2240  TIP3      H1            -19.8956923282      -23.4591611155       -3.4892768626  SOLV      2229            0.0000000000
      6801      2240  TIP3      H2            -20.3701588208      -24.0546176729       -4.8209734588  SOLV      2229            0.0000000000
      6802      2241  TIP3      OH2           -20.9954019041      -24.0201535514       -8.8230238161  SOLV      2230            0.0000000000
      6803      2241  TIP3      H1            -20.6041394814      -23.6407597970       -9.6422881850  SOLV      2230            0.0000000000
      6804      2241  TIP3      H2            -21.6172852390      -23.2973501408       -8.6176353795  SOLV      2230            0.0000000000
      6805      2242  TIP3      OH2            -9.3856226587      -16.8919099109       -2.9146701525  SOLV      2231            0.0000000000
      6806      2242  TIP3      H1             -9.0467825001      -17.5981635483       -3.5117996369  SOLV      2231            0.0000000000
      6807      2242  TIP3      H2             -9.7364090475      -17.4383995996       -2.1808721590  SOLV      2231            0.0000000000
      6808      2243  TIP3      OH2           -12.6051580828      -22.3081260539       -6.1736639840  SOLV      2232            0.0000000000
      6809      2243  TIP3      H1            -13.4714225729      -22.2531538316       -5.7183566974  SOLV      2232            0.0000000000
      6810      2243  TIP3      H2            -11.9882542641      -22.2209415707       -5.4305733271  SOLV      2232            0.0000000000
      6811      2244  TIP3      OH2           -18.3728339123      -21.6616498997       -6.0318328090  SOLV      2233            0.0000000000
      6812      2244  TIP3      H1            -19.2875672564      -21.5444973791       -6.3822332559  SOLV      2233            0.0000000000
      6813      2244  TIP3      H2            -18.1191441368      -22.5320416748       -6.3800875824  SOLV      2233            0.0000000000
      6814      2245  TIP3      OH2           -15.7280308806      -21.5433344239       -9.3922768043  SOLV      2234            0.0000000000
      6815      2245  TIP3      H1            -14.8106842866      -21.3473105669       -9.6322210066  SOLV      2234            0.0000000000
      6816      2245  TIP3      H2            -16.1979047680      -20.7396760385       -9.7049506138  SOLV      2234            0.0000000000
      6817      2246  TIP3      OH2            -7.7636073994      -21.4825280518       -4.1603342707  SOLV      2235            0.0000000000
      6818      2246  TIP3      H1             -8.0538936543      -21.3119624359       -3.2356336239  SOLV      2235            0.0000000000
      6819      2246  TIP3      H2             -8.4778778952      -22.0827470959       -4.4524361546  SOLV      2235            0.0000000000
      6820      2247  TIP3      OH2            -5.7630643714       -4.6363156931       -2.3722393690  SOLV      2236            0.0000000000
      6821      2247  TIP3      H1             -5.9875927779       -4.2330705909       -3.2252219915  SOLV      2236            0.0000000000
      6822      2247  TIP3      H2             -4.8041970769       -4.3723327791       -2.3497296348  SOLV      2236            0.0000000000
      6823      2248  TIP3      OH2           -16.4611279543      -13.5101641429        2.2321551973  SOLV      2237            0.0000000000
      6824      2248  TIP3      H1            -15.6590627714      -13.1757665886        2.6815392242  SOLV      2237            0.0000000000
      6825      2248  TIP3      H2            -17.1136025305      -13.4160947788        2.9516366056  SOLV      2237            0.0000000000
      6826      2249  TIP3      OH2           -11.8639683119      -18.9260044006       -5.2133448696  SOLV      2238            0.0000000000
      6827      2249  TIP3      H1            -11.1016048117      -19.2831913695       -5.6927796157  SOLV      2238            0.0000000000
      6828      2249  TIP3      H2            -11.8000529528      -19.3654362195       -4.3465845478  SOLV      2238            0.0000000000
      6829      2250  TIP3      OH2           -16.5836637537      -24.0822232453       -6.4361465275  SOLV      2239            0.0000000000
      6830      2250  TIP3      H1            -16.9706864332      -24.8517316852       -5.9689924886  SOLV      2239            0.0000000000
      6831      2250  TIP3      H2            -16.4697975223      -24.4195955164       -7.3385471997  SOLV      2239            0.0000000000
      6832      2251  TIP3      OH2           -12.0877843974      -19.9354320972       -2.2796368408  SOLV      2240            0.0000000000
      6833      2251  TIP3      H1            -12.9960376563      -19.5882397573       -2.1644349007  SOLV      2240            0.0000000000
      6834      2251  TIP3      H2            -11.5416123380      -19.2927621781       -1.7849307604  SOLV      2240            0.0000000000
      6835      2252  TIP3      OH2           -14.8271940052      -16.1901910643      -11.2870830454  SOLV      2241            0.0000000000
      6836      2252  TIP3      H1            -15.4397654411      -16.9303653148      -11.1142125481  SOLV      2241            0.0000000000
      6837      2252  TIP3      H2            -14.9235661825      -15.7215073953      -10.4201507230  SOLV      2241            0.0000000000
      6838      2253  TIP3      OH2            -5.7248922032      -13.7158547735       -5.1114252092  SOLV      2242            0.0000000000
      6839      2253  TIP3      H1             -5.5009255205      -13.1670789792       -5.8922912233  SOLV      2242            0.0000000000
      6840      2253  TIP3      H2             -6.5799851970      -14.1205780294       -5.3799704086  SOLV      2242            0.0000000000
      6841      2254  TIP3      OH2           -10.1317201450      -22.9270185554      -12.7431858025  SOLV      2243            0.0000000000
      6842      2254  TIP3      H1            -11.0820075724      -23.1702026716      -12.6211780257  SOLV      2243            0.0000000000
      6843      2254  TIP3      H2            -10.0947776579      -22.0047642117      -12.4178709790  SOLV      2243            0.0000000000
      6844      2255  TIP3      OH2           -10.7993035478      -12.8632043823       -1.3365898146  SOLV      2244            0.0000000000
      6845      2255  TIP3      H1            -10.3613780482      -12.8704768689       -0.4766246379  SOLV      2244            0.0000000000
      6846      2255  TIP3      H2            -11.1429857323      -11.9538195239       -1.3808868661  SOLV      2244            0.0000000000
      6847      2256  TIP3      OH2            -9.4742440423      -20.4462349297      -11.6388013185  SOLV      2245            0.0000000000
      6848      2256  TIP3      H1             -8.5154035376      -20.3595607769      -11.4784942083  SOLV      2245            0.0000000000
      6849      2256  TIP3      H2             -9.6848039057      -19.6210134512      -12.1228153828  SOLV      2245            0.0000000000
      6850      2257  TIP3      OH2           -17.7590970676      -15.8143818896       -4.6801497073  SOLV      2246            0.0000000000
      6851      2257  TIP3      H1            -17.4287746001      -16.1388324430       -5.5450860024  SOLV      2246            0.0000000000
      6852      2257  TIP3      H2            -17.3166975634      -16.4155376545       -4.0647804105  SOLV      2246            0.0000000000
      6853      2258  TIP3      OH2           -13.3397608897      -14.6224041926      -13.1089237392  SOLV      2247            0.0000000000
      6854      2258  TIP3      H1            -13.8078967605      -13.7529996839      -13.0970924233  SOLV      2247            0.0000000000
      6855      2258  TIP3      H2            -13.8923344508      -15.1502434945      -12.4960836951  SOLV      2247            0.0000000000
      6856      2259  TIP3      OH2           -18.9521322778      -16.7396046522        1.5015836851  SOLV      2248            0.0000000000
      6857      2259  TIP3      H1            -18.9307812718      -16.8327425716        2.4729997152  SOLV      2248            0.0000000000
      6858      2259  TIP3      H2            -19.7303666112      -17.2814517424        1.2741009152  SOLV      2248            0.0000000000
      6859      2260  TIP3      OH2           -11.6626535076      -15.5783588467        1.7465858564  SOLV      2249            0.0000000000
      6860      2260  TIP3      H1            -12.2991460450      -16.0493768384        1.1836456031  SOLV      2249            0.0000000000
      6861      2260  TIP3      H2            -10.8125030681      -15.8377730064        1.3396511305  SOLV      2249            0.0000000000
      6862      2261  TIP3      OH2            -9.2074202441      -10.4532061831       -2.4872106792  SOLV      2250            0.0000000000
      6863      2261  TIP3      H1            -10.1493803278      -10.2791981040       -2.3156345752  SOLV      2250            0.0000000000
      6864      2261  TIP3      H2             -8.8201006912       -9.9370011698       -1.7383156067  SOLV      2250            0.0000000000
      6865      2262  TIP3      OH2            -5.0555430669      -19.5105836321      -13.3498203509  SOLV      2251            0.0000000000
      6866      2262  TIP3      H1             -5.6642111186      -19.9394999618      -13.9972138785  SOLV      2251            0.0000000000
      6867      2262  TIP3      H2             -5.0999391212      -18.5994275388      -13.7179011511  SOLV      2251            0.0000000000
      6868      2263  TIP3      OH2            -2.8222651278      -11.0580304349       -2.4698552541  SOLV      2252            0.0000000000
      6869      2263  TIP3      H1             -3.7998140932      -11.0469081725       -2.5825462819  SOLV      2252            0.0000000000
      6870      2263  TIP3      H2             -2.5583597175      -11.2863294989       -3.3898509828  SOLV      2252            0.0000000000
      6871      2264  TIP3      OH2            -8.0173848886      -11.3331922631      -14.2384575996  SOLV      2253            0.0000000000
      6872      2264  TIP3      H1             -8.3158843091      -11.9812485233      -13.5835339666  SOLV      2253            0.0000000000
      6873      2264  TIP3      H2             -7.9042710082      -11.8609158061      -15.0464201199  SOLV      2253            0.0000000000
      6874      2265  TIP3      OH2            -8.0606180331      -15.0539670118       -5.9464003603  SOLV      2254            0.0000000000
      6875      2265  TIP3      H1             -9.0016723304      -15.2709122983       -5.7891372894  SOLV      2254            0.0000000000
      6876      2265  TIP3      H2             -7.7624748119      -15.8660009906       -6.3978389556  SOLV      2254            0.0000000000
      6877      2266  TIP3      OH2           -16.7671439594      -12.7659286580       -8.3822847123  SOLV      2255            0.0000000000
      6878      2266  TIP3      H1            -16.8226033930      -11.9512847343       -8.9173547697  SOLV      2255            0.0000000000
      6879      2266  TIP3      H2            -17.6932817437      -12.9206960031       -8.1679552645  SOLV      2255            0.0000000000
      6880      2267  TIP3      OH2           -21.2764374960      -19.7608547170      -11.5473784604  SOLV      2256            0.0000000000
      6881      2267  TIP3      H1            -20.8685363668      -18.9025779200      -11.3150878204  SOLV      2256            0.0000000000
      6882      2267  TIP3      H2            -21.9358375450      -19.8426123538      -10.8274316460  SOLV      2256            0.0000000000
      6883      2268  TIP3      OH2           -15.3752033081      -15.0974777970       -8.9071904658  SOLV      2257            0.0000000000
      6884      2268  TIP3      H1            -15.7988759625      -14.2398843749       -8.7036186329  SOLV      2257            0.0000000000
      6885      2268  TIP3      H2            -15.8002023714      -15.6916182354       -8.2618380042  SOLV      2257            0.0000000000
      6886      2269  TIP3      OH2           -14.0458625940       -9.3593503553       -3.6704905855  SOLV      2258            0.0000000000
      6887      2269  TIP3      H1            -13.6139832885       -8.6246368078       -4.1526763599  SOLV      2258            0.0000000000
      6888      2269  TIP3      H2            -13.3042260091       -9.6878226566       -3.1328939129  SOLV      2258            0.0000000000
      6889      2270  TIP3      OH2           -17.6180645681      -10.3748125654       -9.8575079360  SOLV      2259            0.0000000000
      6890      2270  TIP3      H1            -18.4593657300      -10.2807854801       -9.3686145473  SOLV      2259            0.0000000000
      6891      2270  TIP3      H2            -17.2752441507       -9.4533903296       -9.8088717670  SOLV      2259            0.0000000000
      6892      2271  TIP3      OH2           -10.2809224546      -13.0671911197       -4.0239977128  SOLV      2260            0.0000000000
      6893      2271  TIP3      H1            -10.3883854294      -13.0373617858       -3.0471781094  SOLV      2260            0.0000000000
      6894      2271  TIP3      H2             -9.3990283879      -13.4506136391       -4.1065671645  SOLV      2260            0.0000000000
      6895      2272  TIP3      OH2           -10.4310308702      -14.0505766886      -15.2386858094  SOLV      2261            0.0000000000
      6896      2272  TIP3      H1             -9.8791856561      -14.3220546674      -14.4657838253  SOLV      2261            0.0000000000
      6897      2272  TIP3      H2            -11.3073825571      -14.3299248968      -14.9351879703  SOLV      2261            0.0000000000
      6898      2273  TIP3      OH2            -7.7176179394       -7.7639693827       -3.6493228234  SOLV      2262            0.0000000000
      6899      2273  TIP3      H1             -8.5670539989       -8.2434032145       -3.6806642471  SOLV      2262            0.0000000000
      6900      2273  TIP3      H2             -7.8806556198       -7.0593311959       -4.3121002202  SOLV      2262            0.0000000000
      6901      2274  TIP3      OH2            -7.0670578715       -9.3500672996      -17.0547589895  SOLV      2263            0.0000000000
      6902      2274  TIP3      H1             -6.6950981326       -8.5878374094      -17.5302625159  SOLV      2263            0.0000000000
      6903      2274  TIP3      H2             -7.8740930191       -8.9271525510      -16.6935821163  SOLV      2263            0.0000000000
      6904      2275  TIP3      OH2           -16.8333651743      -21.4467159694        2.0002666399  SOLV      2264            0.0000000000
      6905      2275  TIP3      H1            -17.7963349404      -21.4911868654        1.8195316546  SOLV      2264            0.0000000000
      6906      2275  TIP3      H2            -16.6760153951      -22.3047961416        2.4331129104  SOLV      2264            0.0000000000
      6907      2276  TIP3      OH2            -8.8071980867      -14.8268616677      -13.1833993715  SOLV      2265            0.0000000000
      6908      2276  TIP3      H1             -8.9233295352      -15.3968314227      -12.3974971550  SOLV      2265            0.0000000000
      6909      2276  TIP3      H2             -7.8295849457      -14.8152813215      -13.2433147951  SOLV      2265            0.0000000000
      6910      2277  TIP3      OH2           -19.7063465749      -10.7437771316       -2.0980179084  SOLV      2266            0.0000000000
      6911      2277  TIP3      H1            -19.1167118486      -11.3991093168       -1.6864132349  SOLV      2266            0.0000000000
      6912      2277  TIP3      H2            -19.4661793158       -9.9418886858       -1.6128147009  SOLV      2266            0.0000000000
      6913      2278  TIP3      OH2           -16.8491831573      -14.3014858001      -15.2393019949  SOLV      2267            0.0000000000
      6914      2278  TIP3      H1            -16.6874835844      -15.2427090362      -15.4397651466  SOLV      2267            0.0000000000
      6915      2278  TIP3      H2            -17.0535771955      -14.3485355470      -14.2817986524  SOLV      2267            0.0000000000
      6916      2279  TIP3      OH2           -17.3770130511      -14.2179781487      -12.5288430402  SOLV      2268            0.0000000000
      6917      2279  TIP3      H1            -16.6575779392      -14.5150334571      -11.9529972961  SOLV      2268            0.0000000000
      6918      2279  TIP3      H2            -17.3513460661      -13.2434438485      -12.3952108420  SOLV      2268            0.0000000000
      6919      2280  TIP3      OH2           -20.4223423662      -17.1831725696      -10.6982263146  SOLV      2269            0.0000000000
      6920      2280  TIP3      H1            -20.3079578827      -17.3441232022       -9.7515364539  SOLV      2269            0.0000000000
      6921      2280  TIP3      H2            -19.5055358203      -17.0169569675      -10.9609030789  SOLV      2269            0.0000000000
      6922      2281  TIP3      OH2            -8.4403200908      -20.9246984907       -1.5478063503  SOLV      2270            0.0000000000
      6923      2281  TIP3      H1             -7.6350686570      -20.5441939777       -1.1611970052  SOLV      2270            0.0000000000
      6924      2281  TIP3      H2             -8.5834338096      -21.7273316977       -1.0025430681  SOLV      2270            0.0000000000
      6925      2282  TIP3      OH2            -9.5866945197      -23.5074339800       -9.8573559047  SOLV      2271            0.0000000000
      6926      2282  TIP3      H1             -9.8109411583      -23.2707292113      -10.7747659439  SOLV      2271            0.0000000000
      6927      2282  TIP3      H2             -9.2459294554      -22.6566927745       -9.5038905329  SOLV      2271            0.0000000000
      6928      2283  TIP3      OH2           -14.6983961251      -12.2805529882      -13.0854243322  SOLV      2272            0.0000000000
      6929      2283  TIP3      H1            -15.5642121536      -12.0658784508      -12.6863421466  SOLV      2272            0.0000000000
      6930      2283  TIP3      H2            -14.5067915583      -11.4382519485      -13.5265921832  SOLV      2272            0.0000000000
      6931      2284  TIP3      OH2           -12.7043557677      -21.6490429987       -8.8655694363  SOLV      2273            0.0000000000
      6932      2284  TIP3      H1            -12.1392311616      -20.8611589134       -9.0091830441  SOLV      2273            0.0000000000
      6933      2284  TIP3      H2            -12.7397339460      -21.6910137656       -7.8882962116  SOLV      2273            0.0000000000
      6934      2285  TIP3      OH2           -10.1169082036      -18.4950023901       -0.8420617107  SOLV      2274            0.0000000000
      6935      2285  TIP3      H1             -9.7829388080      -17.9263582650       -0.1159059360  SOLV      2274            0.0000000000
      6936      2285  TIP3      H2             -9.5476419506      -19.2821181201       -0.7841641769  SOLV      2274            0.0000000000
      6937      2286  TIP3      OH2           -11.3927340359      -24.3962738371       -7.8406833277  SOLV      2275            0.0000000000
      6938      2286  TIP3      H1            -11.6274402753      -23.5737239546       -7.3639971448  SOLV      2275            0.0000000000
      6939      2286  TIP3      H2            -10.7570558317      -24.0521993793       -8.5072939514  SOLV      2275            0.0000000000
      6940      2287  TIP3      OH2           -17.2289738584      -11.5032947510      -12.3310811676  SOLV      2276            0.0000000000
      6941      2287  TIP3      H1            -17.5251998757      -10.7856951924      -12.9340487576  SOLV      2276            0.0000000000
      6942      2287  TIP3      H2            -17.3866522497      -11.0880072333      -11.4524683778  SOLV      2276            0.0000000000
      6943      2288  TIP3      OH2           -16.0794221562      -24.2531777892       -9.8459487043  SOLV      2277            0.0000000000
      6944      2288  TIP3      H1            -16.1038948948      -23.2923153762       -9.6536672835  SOLV      2277            0.0000000000
      6945      2288  TIP3      H2            -15.1141313807      -24.4064026252       -9.8442410227  SOLV      2277            0.0000000000
      6946      2289  TIP3      OH2            -3.7252876989      -19.4613017197       -0.9690166950  SOLV      2278            0.0000000000
      6947      2289  TIP3      H1             -4.7085462455      -19.4603159391       -0.9286075164  SOLV      2278            0.0000000000
      6948      2289  TIP3      H2             -3.5960921893      -19.8144672271       -1.8587291818  SOLV      2278            0.0000000000
      6949      2290  TIP3      OH2            -7.2069416951      -17.5291419479       -7.1447203879  SOLV      2279            0.0000000000
      6950      2290  TIP3      H1             -7.9919265673      -18.0855219104       -6.9952266945  SOLV      2279            0.0000000000
      6951      2290  TIP3      H2             -6.5159889875      -17.9966760840       -6.6314784137  SOLV      2279            0.0000000000
      6952      2291  TIP3      OH2           -20.1682030914      -14.8280854361      -13.0197310232  SOLV      2280            0.0000000000
      6953      2291  TIP3      H1            -19.3740402792      -14.4100742136      -12.6461797439  SOLV      2280            0.0000000000
      6954      2291  TIP3      H2            -19.7917614146      -15.6887329005      -13.2722233968  SOLV      2280            0.0000000000
      6955      2292  TIP3      OH2           -20.7418897883      -22.4888723509      -11.0292791604  SOLV      2281            0.0000000000
      6956      2292  TIP3      H1            -20.4307405193      -21.5744841719      -11.1349017271  SOLV      2281            0.0000000000
      6957      2292  TIP3      H2            -21.3848845088      -22.5588983272      -11.7465645973  SOLV      2281            0.0000000000
      6958      2293  TIP3      OH2            -7.4982681336       -7.9389087060       -7.6853811607  SOLV      2282            0.0000000000
      6959      2293  TIP3      H1             -7.9252434071       -7.4748814530       -8.4398520493  SOLV      2282            0.0000000000
      6960      2293  TIP3      H2             -6.5539670793       -7.7463474184       -7.8788898618  SOLV      2282            0.0000000000
      6961      2294  TIP3      OH2           -16.7520888529      -25.2427935093       -2.4035016166  SOLV      2283            0.0000000000
      6962      2294  TIP3      H1            -17.0565091909      -25.5718392589       -3.2785544230  SOLV      2283            0.0000000000
      6963      2294  TIP3      H2            -16.8758151907      -26.0307135505       -1.8380674032  SOLV      2283            0.0000000000
      6964      2295  TIP3      OH2           -21.3513307533      -12.9989637952       -8.5686225600  SOLV      2284            0.0000000000
      6965      2295  TIP3      H1            -22.0057620507      -12.7482806259       -7.9026461146  SOLV      2284            0.0000000000
      6966      2295  TIP3      H2            -21.7555089319      -12.6350105773       -9.3933241975  SOLV      2284            0.0000000000
      6967      2296  TIP3      OH2           -19.7536061381       -7.5370392874        2.1672107924  SOLV      2285            0.0000000000
      6968      2296  TIP3      H1            -18.8899127751       -7.4962105259        2.6423250488  SOLV      2285            0.0000000000
      6969      2296  TIP3      H2            -19.9136255882       -8.4935187391        2.1634386522  SOLV      2285            0.0000000000
      6970      2297  TIP3      OH2           -15.0275012663       -8.0255030011        2.5971099247  SOLV      2286            0.0000000000
      6971      2297  TIP3      H1            -14.0664023436       -8.1605649173        2.6529741421  SOLV      2286            0.0000000000
      6972      2297  TIP3      H2            -15.2294649950       -8.6754727299        1.8954950895  SOLV      2286            0.0000000000
      6973      2298  TIP3      OH2           -15.2267713571      -12.2865000298      -16.1928081739  SOLV      2287            0.0000000000
      6974      2298  TIP3      H1            -15.7871283470      -12.9757424152      -15.7657515318  SOLV      2287            0.0000000000
      6975      2298  TIP3      H2            -14.4274313911      -12.8046311631      -16.3771678969  SOLV      2287            0.0000000000
      6976      2299  TIP3      OH2            -8.5673580049       -9.1370139442       -0.2775251073  SOLV      2288            0.0000000000
      6977      2299  TIP3      H1             -8.8600219413       -9.5678040454        0.5528508675  SOLV      2288            0.0000000000
      6978      2299  TIP3      H2             -7.8830602564       -8.5205924336        0.0657368912  SOLV      2288            0.0000000000
      6979      2300  TIP3      OH2           -10.8375899085      -11.8922782198      -16.9907573881  SOLV      2289            0.0000000000
      6980      2300  TIP3      H1            -10.4504173652      -12.5296185980      -16.3576007813  SOLV      2289            0.0000000000
      6981      2300  TIP3      H2            -10.2170285172      -11.9315296097      -17.7417624970  SOLV      2289            0.0000000000
      6982      2301  TIP3      OH2           -18.5136624664      -13.5300271249        4.1554267148  SOLV      2290            0.0000000000
      6983      2301  TIP3      H1            -18.3455767718      -14.4940019101        4.1519019516  SOLV      2290            0.0000000000
      6984      2301  TIP3      H2            -19.3843577421      -13.4854873233        3.7041016134  SOLV      2290            0.0000000000
      6985      2302  TIP3      OH2           -18.8217531777      -17.1440306687      -13.9090791832  SOLV      2291            0.0000000000
      6986      2302  TIP3      H1            -18.4198958654      -17.7099138775      -13.2354476842  SOLV      2291            0.0000000000
      6987      2302  TIP3      H2            -18.0688380767      -17.0372772314      -14.5323154182  SOLV      2291            0.0000000000
      6988      2303  TIP3      OH2           -12.3983866098      -12.8066129659        1.8938272878  SOLV      2292            0.0000000000
      6989      2303  TIP3      H1            -12.7950187093      -12.4696316812        1.0620713763  SOLV      2292            0.0000000000
      6990      2303  TIP3      H2            -12.1274964238      -13.7135630506        1.6656205258  SOLV      2292            0.0000000000
      6991      2304  TIP3      OH2           -13.5573353757      -15.0450573252      -15.8254183665  SOLV      2293            0.0000000000
      6992      2304  TIP3      H1            -13.5559495366      -14.9605577368      -14.8487999733  SOLV      2293            0.0000000000
      6993      2304  TIP3      H2            -13.5433767077      -16.0239759019      -15.9146082537  SOLV      2293            0.0000000000
      6994      2305  TIP3      OH2            -7.5075516171      -12.5995466627       -2.0310705288  SOLV      2294            0.0000000000
      6995      2305  TIP3      H1             -6.7330940721      -12.1667541725       -2.4405692191  SOLV      2294            0.0000000000
      6996      2305  TIP3      H2             -8.1897808260      -11.9099181714       -2.1860111186  SOLV      2294            0.0000000000
      6997      2306  TIP3      OH2           -17.4518979648      -16.0852888137        4.0994037604  SOLV      2295            0.0000000000
      6998      2306  TIP3      H1            -16.7897372693      -16.7354261456        3.8565144159  SOLV      2295            0.0000000000
      6999      2306  TIP3      H2            -17.0907828064      -15.7402546803        4.9424527169  SOLV      2295            0.0000000000
      7000      2307  TIP3      OH2           -13.9220809514      -17.3894833387        0.8523925440  SOLV      2296            0.0000000000
      7001      2307  TIP3      H1            -14.7201685907      -16.8263543456        0.7671026869  SOLV      2296            0.0000000000
      7002      2307  TIP3      H2            -13.4302814365      -17.1438445678        0.0379094165  SOLV      2296            0.0000000000
      7003      2308  TIP3      OH2           -15.3619894946      -20.6237006124      -13.5567251356  SOLV      2297            0.0000000000
      7004      2308  TIP3      H1            -15.8106126704      -20.0863274367      -14.2273401947  SOLV      2297            0.0000000000
      7005      2308  TIP3      H2            -14.5162287463      -20.1571227865      -13.4507125444  SOLV      2297            0.0000000000
      7006      2309  TIP3      OH2            -8.8619110064      -13.4472500517        1.9657953570  SOLV      2298            0.0000000000
      7007      2309  TIP3      H1             -8.0501652179      -13.5848341354        1.4650365553  SOLV      2298            0.0000000000
      7008      2309  TIP3      H2             -8.7910431969      -14.0915122022        2.6902784938  SOLV      2298            0.0000000000
      7009      2310  TIP3      OH2            -7.4387174611      -16.8140140017      -16.6146738653  SOLV      2299            0.0000000000
      7010      2310  TIP3      H1             -7.6396044260      -17.2223055795      -17.4798520694  SOLV      2299            0.0000000000
      7011      2310  TIP3      H2             -7.7723682656      -15.9028800672      -16.7944441091  SOLV      2299            0.0000000000
      7012      2311  TIP3      OH2           -12.6417849552      -21.7651153625       -0.1012511278  SOLV      2300            0.0000000000
      7013      2311  TIP3      H1            -12.3630934489      -21.2018965557       -0.8486385899  SOLV      2300            0.0000000000
      7014      2311  TIP3      H2            -13.5992943480      -21.8624185697       -0.2776862690  SOLV      2300            0.0000000000
      7015      2312  TIP3      OH2           -12.5049979416      -16.2954587113       -1.2046527198  SOLV      2301            0.0000000000
      7016      2312  TIP3      H1            -11.6525957656      -16.0886976681       -1.6109686092  SOLV      2301            0.0000000000
      7017      2312  TIP3      H2            -13.0956143984      -15.6698135252       -1.6799396797  SOLV      2301            0.0000000000
      7018      2313  TIP3      OH2            -6.6063255338      -16.5823062715        2.4309222766  SOLV      2302            0.0000000000
      7019      2313  TIP3      H1             -6.0628099689      -17.3829203004        2.4636918822  SOLV      2302            0.0000000000
      7020      2313  TIP3      H2             -5.9834862725      -15.9292770827        2.0777054476  SOLV      2302            0.0000000000
      7021      2314  TIP3      OH2            -6.2274447298      -14.1054543573       -0.2071595488  SOLV      2303            0.0000000000
      7022      2314  TIP3      H1             -6.8134700976      -13.5398852606       -0.7681977190  SOLV      2303            0.0000000000
      7023      2314  TIP3      H2             -5.3537547605      -13.8558943786       -0.5874799957  SOLV      2303            0.0000000000
      7024      2315  TIP3      OH2           -11.3496919783      -24.0608375618        0.6688442025  SOLV      2304            0.0000000000
      7025      2315  TIP3      H1            -11.8365615875      -23.2601712697        0.3625933650  SOLV      2304            0.0000000000
      7026      2315  TIP3      H2            -12.0264663163      -24.7544759727        0.5272408821  SOLV      2304            0.0000000000
      7027      2316  TIP3      OH2            -9.7672291989      -18.9476760566        2.7841359731  SOLV      2305            0.0000000000
      7028      2316  TIP3      H1             -9.6921151571      -18.9544266122        3.7552276745  SOLV      2305            0.0000000000
      7029      2316  TIP3      H2            -10.7099297887      -19.0517363656        2.6145173736  SOLV      2305            0.0000000000
      7030      2317  TIP3      OH2            -7.5941876728      -19.5410500248        1.2489161147  SOLV      2306            0.0000000000
      7031      2317  TIP3      H1             -8.3272584108      -19.4424092694        1.8907958980  SOLV      2306            0.0000000000
      7032      2317  TIP3      H2             -6.8424082077      -19.7828524657        1.8285471730  SOLV      2306            0.0000000000
      7033      2318  TIP3      OH2            -5.3832655404      -20.0392864657        2.8357408460  SOLV      2307            0.0000000000
      7034      2318  TIP3      H1             -5.2720362344      -21.0024781771        2.9829475448  SOLV      2307            0.0000000000
      7035      2318  TIP3      H2             -5.4664456597      -19.6881949893        3.7469265033  SOLV      2307            0.0000000000
      7036      2319  TIP3      OH2           -10.4201599555      -23.9111226544        3.2289238187  SOLV      2308            0.0000000000
      7037      2319  TIP3      H1             -9.7752950506      -24.6448874334        3.1534081822  SOLV      2308            0.0000000000
      7038      2319  TIP3      H2            -10.8163495918      -23.9468651138        2.3311521836  SOLV      2308            0.0000000000
      7039      2320  TIP3      OH2            -9.8527604740      -21.7614935564        4.7923329253  SOLV      2309            0.0000000000
      7040      2320  TIP3      H1             -9.7960637453      -22.5142307439        4.1607377528  SOLV      2309            0.0000000000
      7041      2320  TIP3      H2            -10.8094631790      -21.6875540240        4.8711270030  SOLV      2309            0.0000000000
      7042      2321  TIP3      OH2           -17.5453938400       -9.5075626628      -14.2463032013  SOLV      2310            0.0000000000
      7043      2321  TIP3      H1            -16.5886187679       -9.6026599619      -14.4136254070  SOLV      2310            0.0000000000
      7044      2321  TIP3      H2            -17.7871810687       -8.9333490996      -14.9980039955  SOLV      2310            0.0000000000
      7045      2322  TIP3      OH2           -23.5427712240       -9.5733506307       -7.9232853981  SOLV      2311            0.0000000000
      7046      2322  TIP3      H1            -24.2119303316      -10.1733252870       -8.3128986215  SOLV      2311            0.0000000000
      7047      2322  TIP3      H2            -23.1136121121      -10.1683946221       -7.2720800754  SOLV      2311            0.0000000000
      7048      2323  TIP3      OH2           -22.2262110748      -11.1233033844       -6.0503575651  SOLV      2312            0.0000000000
      7049      2323  TIP3      H1            -22.3495867215      -11.7792121077       -5.3426162190  SOLV      2312            0.0000000000
      7050      2323  TIP3      H2            -21.6872538622      -10.4648649642       -5.5718627171  SOLV      2312            0.0000000000
      7051      2324  TIP3      OH2            -4.9151576985       -7.1162373858       -8.0274026364  SOLV      2313            0.0000000000
      7052      2324  TIP3      H1             -4.7786093348       -6.8512538443       -7.0933326907  SOLV      2313            0.0000000000
      7053      2324  TIP3      H2             -4.3752427381       -6.4639208700       -8.4955883820  SOLV      2313            0.0000000000
      7054      2325  TIP3      OH2            -4.6779753015       -6.8786031343       -5.2810353779  SOLV      2314            0.0000000000
      7055      2325  TIP3      H1             -5.0087869895       -7.7948523110       -5.1753758197  SOLV      2314            0.0000000000
      7056      2325  TIP3      H2             -4.0086128357       -6.8474402558       -4.5796178428  SOLV      2314            0.0000000000
      7057      2326  TIP3      OH2            -4.1793108628      -10.1508360165        0.4942259739  SOLV      2315            0.0000000000
      7058      2326  TIP3      H1             -4.9446510535      -10.0299745376        1.0998367004  SOLV      2315            0.0000000000
      7059      2326  TIP3      H2             -3.8035253000       -9.2479598773        0.5054203666  SOLV      2315            0.0000000000
      7060      2327  TIP3      OH2            -6.0215051385      -14.9569947796      -13.3265821947  SOLV      2316            0.0000000000
      7061      2327  TIP3      H1             -5.3846979000      -14.2751326390      -13.6217065890  SOLV      2316            0.0000000000
      7062      2327  TIP3      H2             -5.5719920893      -15.3054580370      -12.5253863119  SOLV      2316            0.0000000000
      7063      2328  TIP3      OH2            -4.7526652927      -16.2969942273      -11.2771432769  SOLV      2317            0.0000000000
      7064      2328  TIP3      H1             -5.4391725342      -16.6747187123      -10.6840789067  SOLV      2317            0.0000000000
      7065      2328  TIP3      H2             -4.1176085426      -15.9045120981      -10.6428326170  SOLV      2317            0.0000000000
      7066      2329  TIP3      OH2            -4.1807716603      -12.2940080945       -6.9328170574  SOLV      2318            0.0000000000
      7067      2329  TIP3      H1             -3.6959606150      -12.9628526353       -7.4489070077  SOLV      2318            0.0000000000
      7068      2329  TIP3      H2             -4.2390813555      -11.5475254036       -7.5625743285  SOLV      2318            0.0000000000
      7069      2330  TIP3      OH2            -5.9457756113       -9.3875929244       -4.9803249184  SOLV      2319            0.0000000000
      7070      2330  TIP3      H1             -6.6241398629       -8.8792645259       -4.4848760693  SOLV      2319            0.0000000000
      7071      2330  TIP3      H2             -6.4739252415       -9.7763490995       -5.7062138468  SOLV      2319            0.0000000000
      7072      2331  TIP3      OH2            -5.4045521723      -17.1864868082      -14.8280788812  SOLV      2320            0.0000000000
      7073      2331  TIP3      H1             -6.1224425855      -17.1479438137      -15.5004523075  SOLV      2320            0.0000000000
      7074      2331  TIP3      H2             -5.6752280196      -16.4272938919      -14.2670882983  SOLV      2320            0.0000000000
      7075      2332  TIP3      OH2            -6.6339206505      -20.5041275991      -15.3340056077  SOLV      2321            0.0000000000
      7076      2332  TIP3      H1             -7.1805706838      -20.0788338473      -16.0048091178  SOLV      2321            0.0000000000
      7077      2332  TIP3      H2             -6.8769845480      -21.4443970575      -15.4627942342  SOLV      2321            0.0000000000
      7078      2333  TIP3      OH2            -6.6475753064      -17.6534633600       -9.8177617585  SOLV      2322            0.0000000000
      7079      2333  TIP3      H1             -6.6045313334      -18.6194763657       -9.8932557059  SOLV      2322            0.0000000000
      7080      2333  TIP3      H2             -6.8102968755      -17.5286088677       -8.8540396042  SOLV      2322            0.0000000000
      7081      2334  TIP3      OH2           -20.4135656268      -17.0148609946       -2.3122235280  SOLV      2323            0.0000000000
      7082      2334  TIP3      H1            -20.4404833612      -17.3272339713       -3.2419557570  SOLV      2323            0.0000000000
      7083      2334  TIP3      H2            -19.4384342636      -16.9539914723       -2.1750049520  SOLV      2323            0.0000000000
      7084      2335  TIP3      OH2            -3.7648380813      -13.4535122514       -1.2187056672  SOLV      2324            0.0000000000
      7085      2335  TIP3      H1             -3.0338988733      -14.0888426515       -1.3739872059  SOLV      2324            0.0000000000
      7086      2335  TIP3      H2             -3.5379207296      -12.7192504146       -1.8183558934  SOLV      2324            0.0000000000
      7087      2336  TIP3      OH2            -1.9328878972      -15.4615451291       -1.2004874398  SOLV      2325            0.0000000000
      7088      2336  TIP3      H1             -2.6733663027      -15.9153853771       -0.7424906343  SOLV      2325            0.0000000000
      7089      2336  TIP3      H2             -1.1991763773      -16.0776800062       -0.9950143706  SOLV      2325            0.0000000000
      7090      2337  TIP3      OH2            -7.2288583358      -23.1883220979      -15.5693669511  SOLV      2326            0.0000000000
      7091      2337  TIP3      H1             -6.5943451291      -23.4407672180      -14.8704899148  SOLV      2326            0.0000000000
      7092      2337  TIP3      H2             -8.0498932040      -23.6513865570      -15.3162016602  SOLV      2326            0.0000000000
      7093      2338  TIP3      OH2            -6.6652176098      -20.5073889075      -10.8920287114  SOLV      2327            0.0000000000
      7094      2338  TIP3      H1             -6.2562677783      -21.3941771354      -10.7574492492  SOLV      2327            0.0000000000
      7095      2338  TIP3      H2             -6.0917849530      -20.1629173751      -11.5984563831  SOLV      2327            0.0000000000
      7096      2339  TIP3      OH2            -5.0831560757      -18.8595697780       -5.8950530782  SOLV      2328            0.0000000000
      7097      2339  TIP3      H1             -4.2336570281      -18.6041201155       -6.3200189149  SOLV      2328            0.0000000000
      7098      2339  TIP3      H2             -4.9506124348      -18.4413577883       -5.0215103829  SOLV      2328            0.0000000000
      7099      2340  TIP3      OH2            -4.3536618091      -17.3408623778       -3.6296852583  SOLV      2329            0.0000000000
      7100      2340  TIP3      H1             -5.1278521720      -17.0003830712       -3.1409116182  SOLV      2329            0.0000000000
      7101      2340  TIP3      H2             -4.0307940240      -16.5231061059       -4.0692202672  SOLV      2329            0.0000000000
      7102      2341  TIP3      OH2           -18.0466182575      -20.1122054298        4.6375446343  SOLV      2330            0.0000000000
      7103      2341  TIP3      H1            -17.3659159784      -20.5893033519        4.1555038717  SOLV      2330            0.0000000000
      7104      2341  TIP3      H2            -18.5677600028      -20.8706847592        4.9687909323  SOLV      2330            0.0000000000
      7105      2342  TIP3      OH2             0.1775560799      -21.3775354653        1.9418393202  SOLV      2331            0.0000000000
      7106      2342  TIP3      H1              0.7758864537      -22.0227979511        1.5069363199  SOLV      2331            0.0000000000
      7107      2342  TIP3      H2             -0.1773135086      -20.8866291796        1.1675480722  SOLV      2331            0.0000000000
      7108      2343  TIP3      OH2            -5.5581996489      -23.0152914135      -10.5325627773  SOLV      2332            0.0000000000
      7109      2343  TIP3      H1             -5.1084723730      -23.1672106833       -9.6744727697  SOLV      2332            0.0000000000
      7110      2343  TIP3      H2             -6.2003735495      -23.7546403614      -10.5312440426  SOLV      2332            0.0000000000
      7111      2344  TIP3      OH2           -18.5751689232      -23.1423484463       -2.1907495888  SOLV      2333            0.0000000000
      7112      2344  TIP3      H1            -17.9743727195      -23.9133860389       -2.2000313775  SOLV      2333            0.0000000000
      7113      2344  TIP3      H2            -17.9532360094      -22.4208303812       -2.3915992489  SOLV      2333            0.0000000000
      7114      2345  TIP3      OH2           -20.5780763470      -20.4427999363       -1.5372840356  SOLV      2334            0.0000000000
      7115      2345  TIP3      H1            -20.0933451769      -20.4946824496       -2.3869704429  SOLV      2334            0.0000000000
      7116      2345  TIP3      H2            -20.3770654728      -19.5408036684       -1.2638385506  SOLV      2334            0.0000000000
      7117      2346  TIP3      OH2            -1.1957896601      -20.0875442511       -0.0044331998  SOLV      2335            0.0000000000
      7118      2346  TIP3      H1             -2.0330404206      -19.6113468481        0.1775092929  SOLV      2335            0.0000000000
      7119      2346  TIP3      H2             -1.5440628584      -20.7944457079       -0.5854874830  SOLV      2335            0.0000000000
      7120      2347  TIP3      OH2            -4.8213160289      -23.7055937239      -14.1150273161  SOLV      2336            0.0000000000
      7121      2347  TIP3      H1             -4.3642472674      -24.3627761376      -14.6766494780  SOLV      2336            0.0000000000
      7122      2347  TIP3      H2             -4.1900365769      -22.9596586777      -14.1122526074  SOLV      2336            0.0000000000
      7123      2348  TIP3      OH2           -20.7037101695      -25.2516031005       -6.4396406329  SOLV      2337            0.0000000000
      7124      2348  TIP3      H1            -21.6379198720      -25.4421247177       -6.2537945373  SOLV      2337            0.0000000000
      7125      2348  TIP3      H2            -20.7638077913      -24.7384802646       -7.2726725245  SOLV      2337            0.0000000000
      7126      2349  TIP3      OH2            -9.1731110929       -8.3615564722      -11.5283759297  SOLV      2338            0.0000000000
      7127      2349  TIP3      H1             -8.5910195618       -8.3834642342      -12.3152123481  SOLV      2338            0.0000000000
      7128      2349  TIP3      H2             -8.7258228135       -7.7052193595      -10.9615820746  SOLV      2338            0.0000000000
      7129      2350  TIP3      OH2           -18.4792369499      -24.4961727213        1.6181541185  SOLV      2339            0.0000000000
      7130      2350  TIP3      H1            -19.0405180299      -24.6182444784        2.4013044903  SOLV      2339            0.0000000000
      7131      2350  TIP3      H2            -19.1411415203      -24.1739007650        0.9718045374  SOLV      2339            0.0000000000
      7132      2351  TIP3      OH2           -18.1405834733      -10.3750087460        2.3116343376  SOLV      2340            0.0000000000
      7133      2351  TIP3      H1            -19.0950224165      -10.5525863168        2.2104798598  SOLV      2340            0.0000000000
      7134      2351  TIP3      H2            -18.0315544917      -10.3852695905        3.2696789153  SOLV      2340            0.0000000000
      7135      2352  TIP3      OH2           -16.3317524235       -9.9737748459       -2.2260690672  SOLV      2341            0.0000000000
      7136      2352  TIP3      H1            -16.7879109751       -9.1882629147       -2.5958824505  SOLV      2341            0.0000000000
      7137      2352  TIP3      H2            -15.4558688164       -9.8294685835       -2.6396012874  SOLV      2341            0.0000000000
      7138      2353  TIP3      OH2           -11.7956410153       -7.4638794210       -0.4690578850  SOLV      2342            0.0000000000
      7139      2353  TIP3      H1            -11.4436853982       -7.2125266177        0.4108587110  SOLV      2342            0.0000000000
      7140      2353  TIP3      H2            -11.1761495036       -6.9800633272       -1.0461424777  SOLV      2342            0.0000000000
      7141      2354  TIP3      OH2           -10.0974767134       -5.9669174212       -2.1304687910  SOLV      2343            0.0000000000
      7142      2354  TIP3      H1             -9.2738329944       -6.4158627419       -2.3677475071  SOLV      2343            0.0000000000
      7143      2354  TIP3      H2             -9.8302996287       -5.4589473757       -1.3468220873  SOLV      2343            0.0000000000
      7144      2355  TIP3      OH2            -2.1691886918      -22.4269707493       -1.2114976328  SOLV      2344            0.0000000000
      7145      2355  TIP3      H1             -3.0642685661      -22.4962411297       -1.5877821790  SOLV      2344            0.0000000000
      7146      2355  TIP3      H2             -1.8495073107      -23.3537903978       -1.3038596305  SOLV      2344            0.0000000000
      7147      2356  TIP3      OH2           -19.6063580009       -7.4496797828       -1.8832831713  SOLV      2345            0.0000000000
      7148      2356  TIP3      H1            -20.5192177878       -7.1443743944       -2.0875248476  SOLV      2345            0.0000000000
      7149      2356  TIP3      H2            -19.3940283569       -6.8695816434       -1.1358683118  SOLV      2345            0.0000000000
      7150      2357  TIP3      OH2           -17.2474720967       -7.6404593056       -3.3328568373  SOLV      2346            0.0000000000
      7151      2357  TIP3      H1            -18.1244810987       -7.5252072985       -2.9056335907  SOLV      2346            0.0000000000
      7152      2357  TIP3      H2            -17.4194099364       -7.3008195842       -4.2331613158  SOLV      2346            0.0000000000
      7153      2358  TIP3      OH2           -12.9726041697       -7.3596625127       -5.3652575803  SOLV      2347            0.0000000000
      7154      2358  TIP3      H1            -13.6895784532       -7.1482941295       -5.9881201560  SOLV      2347            0.0000000000
      7155      2358  TIP3      H2            -12.8454370539       -6.4978922983       -4.9112277216  SOLV      2347            0.0000000000
      7156      2359  TIP3      OH2           -10.2759302838       -8.0476594188       -4.9033819702  SOLV      2348            0.0000000000
      7157      2359  TIP3      H1            -11.2081051687       -7.7889719901       -5.0406580245  SOLV      2348            0.0000000000
      7158      2359  TIP3      H2             -9.8047384750       -7.2563928825       -5.2183267404  SOLV      2348            0.0000000000
      7159      2360  TIP3      OH2            -8.3207110548       -6.0943857454       -5.7468795515  SOLV      2349            0.0000000000
      7160      2360  TIP3      H1             -8.4654713974       -5.2499887801       -6.2316534710  SOLV      2349            0.0000000000
      7161      2360  TIP3      H2             -8.0105048062       -6.6854713771       -6.4652999817  SOLV      2349            0.0000000000
      7162      2361  TIP3      OH2           -20.4796481060       -9.5046225326       -4.5215428590  SOLV      2350            0.0000000000
      7163      2361  TIP3      H1            -20.2310054846       -9.7749123964       -3.6126405241  SOLV      2350            0.0000000000
      7164      2361  TIP3      H2            -19.7399886992       -9.9261154267       -5.0150350269  SOLV      2350            0.0000000000
      7165      2362  TIP3      OH2           -18.4957507659      -10.7524255258       -5.8933954555  SOLV      2351            0.0000000000
      7166      2362  TIP3      H1            -18.3593134895      -11.5908259659       -5.3904947355  SOLV      2351            0.0000000000
      7167      2362  TIP3      H2            -17.5806481640      -10.3973273012       -5.9098518226  SOLV      2351            0.0000000000
      7168      2363  TIP3      OH2           -15.8367959659       -9.8590343285       -5.8103723362  SOLV      2352            0.0000000000
      7169      2363  TIP3      H1            -15.5381753963      -10.7868670979       -5.8769998654  SOLV      2352            0.0000000000
      7170      2363  TIP3      H2            -15.3451491894       -9.5930294012       -5.0088388727  SOLV      2352            0.0000000000
      7171      2364  TIP3      OH2           -10.0159334577      -23.2310634433       -4.8370207326  SOLV      2353            0.0000000000
      7172      2364  TIP3      H1            -10.5244568374      -23.9345766168       -4.3964091543  SOLV      2353            0.0000000000
      7173      2364  TIP3      H2             -9.4017617030      -23.7321925683       -5.4008656510  SOLV      2353            0.0000000000
      7174      2365  TIP3      OH2            -4.9111365301      -24.4943488272       -5.9900551525  SOLV      2354            0.0000000000
      7175      2365  TIP3      H1             -4.5612335655      -23.9443773610       -6.7248655321  SOLV      2354            0.0000000000
      7176      2365  TIP3      H2             -5.8650903490      -24.2836976939       -6.0271103770  SOLV      2354            0.0000000000
      7177      2366  TIP3      OH2            -3.9497315826      -23.5066447297       -8.3501916036  SOLV      2355            0.0000000000
      7178      2366  TIP3      H1             -3.1906055123      -24.0020630867       -8.7204482912  SOLV      2355            0.0000000000
      7179      2366  TIP3      H2             -3.6239040347      -22.5843772252       -8.4729972626  SOLV      2355            0.0000000000
      7180      2367  TIP3      OH2           -17.6525102129      -26.1839556996       -4.8543712129  SOLV      2356            0.0000000000
      7181      2367  TIP3      H1            -18.5896784017      -26.4761511374       -4.8234805619  SOLV      2356            0.0000000000
      7182      2367  TIP3      H2            -17.2029674266      -27.0519461838       -4.9283361330  SOLV      2356            0.0000000000
      7183      2368  TIP3      OH2           -19.6505047154      -27.5658693178       -8.2240656673  SOLV      2357            0.0000000000
      7184      2368  TIP3      H1            -19.4247577647      -27.2857011736       -9.1213570442  SOLV      2357            0.0000000000
      7185      2368  TIP3      H2            -19.8443862986      -26.7352669336       -7.7598878789  SOLV      2357            0.0000000000
      7186      2369  TIP3      OH2           -13.0542269611      -25.9652640000       -6.0327856766  SOLV      2358            0.0000000000
      7187      2369  TIP3      H1            -12.5587396856      -25.4199926832       -6.6655340254  SOLV      2358            0.0000000000
      7188      2369  TIP3      H2            -13.0390821030      -25.4112221370       -5.2424633722  SOLV      2358            0.0000000000
      7189      2370  TIP3      OH2            -7.7166456953      -24.3783170979       -6.2439223735  SOLV      2359            0.0000000000
      7190      2370  TIP3      H1             -7.8269242215      -24.7771870976       -7.1150492853  SOLV      2359            0.0000000000
      7191      2370  TIP3      H2             -7.8438368614      -25.1560543152       -5.6504526299  SOLV      2359            0.0000000000
      7192      2371  TIP3      OH2            -7.4136747368      -25.1229748850      -10.5793758547  SOLV      2360            0.0000000000
      7193      2371  TIP3      H1             -8.2418145584      -24.6430192666      -10.3693757608  SOLV      2360            0.0000000000
      7194      2371  TIP3      H2             -7.5901839831      -25.9813489123      -10.1383522914  SOLV      2360            0.0000000000
      7195      2372  TIP3      OH2           -22.6667916704      -11.7412541295      -10.5846760926  SOLV      2361            0.0000000000
      7196      2372  TIP3      H1            -23.5539926395      -11.9668207023      -10.9102116614  SOLV      2361            0.0000000000
      7197      2372  TIP3      H2            -22.6536821469      -10.7873540306      -10.7694220491  SOLV      2361            0.0000000000
      7198      2373  TIP3      OH2           -13.3472775360      -24.1206415905       -9.7815249338  SOLV      2362            0.0000000000
      7199      2373  TIP3      H1            -12.7952754685      -24.5389139346       -9.1004192861  SOLV      2362            0.0000000000
      7200      2373  TIP3      H2            -13.1938931191      -23.1749396079       -9.5538863838  SOLV      2362            0.0000000000
      7201      2374  TIP3      OH2           -14.8802905480       -9.9438936822      -14.7554649731  SOLV      2363            0.0000000000
      7202      2374  TIP3      H1            -13.9987135365       -9.7064963357      -15.1113498991  SOLV      2363            0.0000000000
      7203      2374  TIP3      H2            -15.0950566912      -10.6934018131      -15.3537684933  SOLV      2363            0.0000000000
      7204      2375  TIP3      OH2            -7.6363360405       -8.6587328284      -13.8217291680  SOLV      2364            0.0000000000
      7205      2375  TIP3      H1             -7.7319295704       -9.6372410489      -13.9038277319  SOLV      2364            0.0000000000
      7206      2375  TIP3      H2             -8.1347081633       -8.3634122585      -14.6099742294  SOLV      2364            0.0000000000
      7207      2376  TIP3      OH2           -15.5750404542      -23.3588537787        4.0768317969  SOLV      2365            0.0000000000
      7208      2376  TIP3      H1            -15.9984305607      -24.0585352438        4.6059145253  SOLV      2365            0.0000000000
      7209      2376  TIP3      H2            -14.6592917798      -23.4134064372        4.4128072166  SOLV      2365            0.0000000000
      7210      2377  TIP3      OH2           -12.9360944796      -23.3447214764        5.1695773252  SOLV      2366            0.0000000000
      7211      2377  TIP3      H1            -12.1743048370      -23.8095209492        4.7791222324  SOLV      2366            0.0000000000
      7212      2377  TIP3      H2            -13.1709707930      -23.9733387039        5.8892701670  SOLV      2366            0.0000000000
      7213      2378  TIP3      OH2           -21.9108526521      -11.6765032293      -14.1794102604  SOLV      2367            0.0000000000
      7214      2378  TIP3      H1            -21.8539663031      -11.3708400602      -13.2631665054  SOLV      2367            0.0000000000
      7215      2378  TIP3      H2            -21.0118268225      -12.0555493440      -14.3272531474  SOLV      2367            0.0000000000
      7216      2379  TIP3      OH2            -4.7782994210      -22.7586335364        3.1177250919  SOLV      2368            0.0000000000
      7217      2379  TIP3      H1             -4.6065753154      -23.0694382244        4.0334379324  SOLV      2368            0.0000000000
      7218      2379  TIP3      H2             -3.8830171604      -22.8137527352        2.7217158589  SOLV      2368            0.0000000000
      7219      2380  TIP3      OH2            -5.3750317955       -7.2671144864       -2.0092056368  SOLV      2369            0.0000000000
      7220      2380  TIP3      H1             -6.2015618355       -7.5594204392       -2.4389879376  SOLV      2369            0.0000000000
      7221      2380  TIP3      H2             -5.5133578008       -6.2893705975       -2.0351993798  SOLV      2369            0.0000000000
      7222      2381  TIP3      OH2             7.2439285680      -13.5410613709      -14.3231056736  SOLV      2370            0.0000000000
      7223      2381  TIP3      H1              6.9459310618      -12.6289305659      -14.5204600065  SOLV      2370            0.0000000000
      7224      2381  TIP3      H2              6.4783780625      -14.0403637367      -14.6558900669  SOLV      2370            0.0000000000
      7225      2382  TIP3      OH2             7.2647075220      -13.5188680568      -10.4521105122  SOLV      2371            0.0000000000
      7226      2382  TIP3      H1              7.6116904486      -13.7420046990       -9.5678510838  SOLV      2371            0.0000000000
      7227      2382  TIP3      H2              6.8293614781      -14.3439927824      -10.7147283361  SOLV      2371            0.0000000000
      7228      2383  TIP3      OH2             0.2272315139      -14.6071124197       -6.8519564251  SOLV      2372            0.0000000000
      7229      2383  TIP3      H1              0.5275370499      -15.3018213749       -6.2383794664  SOLV      2372            0.0000000000
      7230      2383  TIP3      H2              0.9648159278      -13.9838686600       -6.8056205549  SOLV      2372            0.0000000000
      7231      2384  TIP3      OH2             9.6812814314      -10.4839084688      -13.6229071241  SOLV      2373            0.0000000000
      7232      2384  TIP3      H1              9.5521406397      -11.1448918143      -12.9308945994  SOLV      2373            0.0000000000
      7233      2384  TIP3      H2             10.0494575283       -9.7323493929      -13.1246701505  SOLV      2373            0.0000000000
      7234      2385  TIP3      OH2            -0.0409768648      -10.4879961709       -9.6761087373  SOLV      2374            0.0000000000
      7235      2385  TIP3      H1             -0.1241426914      -11.4631845967       -9.6393402787  SOLV      2374            0.0000000000
      7236      2385  TIP3      H2              0.9246755221      -10.3808080699       -9.6482498553  SOLV      2374            0.0000000000
      7237      2386  TIP3      OH2            -2.9699778226      -18.5054309155      -11.8115643237  SOLV      2375            0.0000000000
      7238      2386  TIP3      H1             -3.4102411577      -17.6709248756      -11.5655851782  SOLV      2375            0.0000000000
      7239      2386  TIP3      H2             -3.7134854225      -18.9669785632      -12.2407607755  SOLV      2375            0.0000000000
      7240      2387  TIP3      OH2            -2.4203232073      -15.5896728458       -9.9795085239  SOLV      2376            0.0000000000
      7241      2387  TIP3      H1             -1.9045561257      -16.3614366934       -9.6561992749  SOLV      2376            0.0000000000
      7242      2387  TIP3      H2             -1.7800436104      -15.1365627901      -10.5452496944  SOLV      2376            0.0000000000
      7243      2388  TIP3      OH2             6.3154899982       -5.8723773936      -13.4064589341  SOLV      2377            0.0000000000
      7244      2388  TIP3      H1              6.6795774692       -6.5748962556      -13.9850537444  SOLV      2377            0.0000000000
      7245      2388  TIP3      H2              5.9671114984       -6.3909118211      -12.6697448051  SOLV      2377            0.0000000000
      7246      2389  TIP3      OH2             5.2139407334      -11.2605767010       -9.9977735355  SOLV      2378            0.0000000000
      7247      2389  TIP3      H1              5.6447203478      -12.0106803205      -10.4405586523  SOLV      2378            0.0000000000
      7248      2389  TIP3      H2              6.0231175907      -10.7760262511       -9.7253334503  SOLV      2378            0.0000000000
      7249      2390  TIP3      OH2            15.4003499340      -18.0892429658      -10.0089317000  SOLV      2379            0.0000000000
      7250      2390  TIP3      H1             15.6820454252      -17.2421397172       -9.6107723426  SOLV      2379            0.0000000000
      7251      2390  TIP3      H2             15.6339468633      -17.9425822523      -10.9439091015  SOLV      2379            0.0000000000
      7252      2391  TIP3      OH2             9.3311634574      -16.2958373091       -9.7022146178  SOLV      2380            0.0000000000
      7253      2391  TIP3      H1              9.7792947842      -17.1386709729       -9.5022689543  SOLV      2380            0.0000000000
      7254      2391  TIP3      H2              9.0235771519      -16.4613132213      -10.6141616785  SOLV      2380            0.0000000000
      7255      2392  TIP3      OH2             2.7798277646      -19.6723222215      -10.0583157172  SOLV      2381            0.0000000000
      7256      2392  TIP3      H1              2.5782729908      -18.9332758092      -10.6711146683  SOLV      2381            0.0000000000
      7257      2392  TIP3      H2              2.2587749002      -20.3869562505      -10.4833057067  SOLV      2381            0.0000000000
      7258      2393  TIP3      OH2             9.7126980131      -18.7389249817      -13.8494118458  SOLV      2382            0.0000000000
      7259      2393  TIP3      H1             10.4197073964      -18.8765653419      -13.1768515311  SOLV      2382            0.0000000000
      7260      2393  TIP3      H2             10.2491560958      -18.3912660210      -14.5879107160  SOLV      2382            0.0000000000
      7261      2394  TIP3      OH2            -0.9336459683      -17.6488746070       -8.9601075955  SOLV      2383            0.0000000000
      7262      2394  TIP3      H1             -0.1076347492      -17.8095849771       -8.4669988739  SOLV      2383            0.0000000000
      7263      2394  TIP3      H2             -0.7666475603      -18.1994709020       -9.7548286617  SOLV      2383            0.0000000000
      7264      2395  TIP3      OH2             3.4699815925      -15.6814918159      -11.0164268013  SOLV      2384            0.0000000000
      7265      2395  TIP3      H1              4.4142424259      -15.9210586148      -10.8983252796  SOLV      2384            0.0000000000
      7266      2395  TIP3      H2              3.0899855381      -16.5232762325      -11.3457003455  SOLV      2384            0.0000000000
      7267      2396  TIP3      OH2            16.1062132370      -15.9944719715       -8.2630741551  SOLV      2385            0.0000000000
      7268      2396  TIP3      H1             15.2814170652      -15.5152583513       -8.4905104256  SOLV      2385            0.0000000000
      7269      2396  TIP3      H2             16.3924674698      -15.5086049201       -7.4695073515  SOLV      2385            0.0000000000
      7270      2397  TIP3      OH2             2.6908583476      -19.8230158849       -5.6763113856  SOLV      2386            0.0000000000
      7271      2397  TIP3      H1              2.1126432072      -19.4357630069       -6.3612609797  SOLV      2386            0.0000000000
      7272      2397  TIP3      H2              2.1544477970      -19.6404894656       -4.8760384213  SOLV      2386            0.0000000000
      7273      2398  TIP3      OH2             6.0639687148      -11.3642638943      -15.6134822193  SOLV      2387            0.0000000000
      7274      2398  TIP3      H1              5.7146449022      -11.4176162719      -16.5145868428  SOLV      2387            0.0000000000
      7275      2398  TIP3      H2              5.6491931796      -10.5317241104      -15.3039430167  SOLV      2387            0.0000000000
      7276      2399  TIP3      OH2             3.7694216927      -12.0696371223       -7.7858995437  SOLV      2388            0.0000000000
      7277      2399  TIP3      H1              3.1864431345      -11.3671918538       -7.4169961085  SOLV      2388            0.0000000000
      7278      2399  TIP3      H2              4.1986615764      -11.5967674892       -8.5301324096  SOLV      2388            0.0000000000
      7279      2400  TIP3      OH2            11.7263639559      -18.6812194142      -12.0238800069  SOLV      2389            0.0000000000
      7280      2400  TIP3      H1             11.5290318031      -19.0479560101      -11.1517417602  SOLV      2389            0.0000000000
      7281      2400  TIP3      H2             12.2510674762      -17.8895387560      -11.7933505811  SOLV      2389            0.0000000000
      7282      2401  TIP3      OH2             1.4292935413      -18.6793774667       -7.8597805368  SOLV      2390            0.0000000000
      7283      2401  TIP3      H1              2.0330541927      -17.9432866113       -7.6094085499  SOLV      2390            0.0000000000
      7284      2401  TIP3      H2              1.9345398640      -19.0659033956       -8.6100638341  SOLV      2390            0.0000000000
      7285      2402  TIP3      OH2             2.0864229468      -10.0983733991       -6.7962263921  SOLV      2391            0.0000000000
      7286      2402  TIP3      H1              1.8435521202       -9.2033585119       -7.1180514417  SOLV      2391            0.0000000000
      7287      2402  TIP3      H2              1.2796909344      -10.2897809284       -6.2673257111  SOLV      2391            0.0000000000
      7288      2403  TIP3      OH2            -4.0489739928      -13.2189537956      -14.4208897209  SOLV      2392            0.0000000000
      7289      2403  TIP3      H1             -4.4613809264      -12.9029060590      -15.2441125071  SOLV      2392            0.0000000000
      7290      2403  TIP3      H2             -3.7264686851      -12.3712283232      -14.0396635202  SOLV      2392            0.0000000000
      7291      2404  TIP3      OH2            10.3267374883       -8.0659217256      -12.0162543408  SOLV      2393            0.0000000000
      7292      2404  TIP3      H1              9.4253060943       -8.1332445651      -11.6327421783  SOLV      2393            0.0000000000
      7293      2404  TIP3      H2             10.2799264879       -7.1965125472      -12.4656197330  SOLV      2393            0.0000000000
      7294      2405  TIP3      OH2            13.3196591019      -19.1357662700       -8.3775508970  SOLV      2394            0.0000000000
      7295      2405  TIP3      H1             12.4560473876      -18.8341786167       -8.7042647947  SOLV      2394            0.0000000000
      7296      2405  TIP3      H2             13.9341533695      -18.7681138652       -9.0478891979  SOLV      2394            0.0000000000
      7297      2406  TIP3      OH2             6.2125124440      -22.6846372684       -8.5117355028  SOLV      2395            0.0000000000
      7298      2406  TIP3      H1              6.0281051202      -23.6261730624       -8.3345603360  SOLV      2395            0.0000000000
      7299      2406  TIP3      H2              5.4567011712      -22.2650261230       -8.0447658778  SOLV      2395            0.0000000000
      7300      2407  TIP3      OH2             7.3328642839       -7.5763338225      -15.3638674756  SOLV      2396            0.0000000000
      7301      2407  TIP3      H1              7.8324750135       -8.4157803570      -15.5141128819  SOLV      2396            0.0000000000
      7302      2407  TIP3      H2              8.0045066051       -6.9337249318      -15.6884191953  SOLV      2396            0.0000000000
      7303      2408  TIP3      OH2             8.7611005440       -9.7658393161      -16.1205219780  SOLV      2397            0.0000000000
      7304      2408  TIP3      H1              8.4922120517      -10.5835421051      -16.5566758514  SOLV      2397            0.0000000000
      7305      2408  TIP3      H2              9.1569957704      -10.1036211012      -15.2856244373  SOLV      2397            0.0000000000
      7306      2409  TIP3      OH2            12.6285915767       -9.0059228924       -8.5427598826  SOLV      2398            0.0000000000
      7307      2409  TIP3      H1             12.5098769237       -9.7688931085       -9.1491288124  SOLV      2398            0.0000000000
      7308      2409  TIP3      H2             12.4889387351       -8.2514038420       -9.1567209595  SOLV      2398            0.0000000000
      7309      2410  TIP3      OH2             5.5402800806      -15.0269562191      -15.9565947339  SOLV      2399            0.0000000000
      7310      2410  TIP3      H1              4.7592983918      -14.4650788969      -16.1451722727  SOLV      2399            0.0000000000
      7311      2410  TIP3      H2              6.0031604392      -15.0154621567      -16.8130569600  SOLV      2399            0.0000000000
      7312      2411  TIP3      OH2             5.1234588606      -17.1391847120      -18.8647319405  SOLV      2400            0.0000000000
      7313      2411  TIP3      H1              5.7650879542      -16.5959364485      -18.3712177865  SOLV      2400            0.0000000000
      7314      2411  TIP3      H2              5.7360798183      -17.7404676445      -19.3390323783  SOLV      2400            0.0000000000
      7315      2412  TIP3      OH2            14.5678631739      -12.5765283000      -10.0837902176  SOLV      2401            0.0000000000
      7316      2412  TIP3      H1             13.7347045639      -12.0548596968      -10.0663299881  SOLV      2401            0.0000000000
      7317      2412  TIP3      H2             14.9019294946      -12.3207715794      -10.9737357280  SOLV      2401            0.0000000000
      7318      2413  TIP3      OH2             9.0293389887      -14.1894054831      -16.2963543653  SOLV      2402            0.0000000000
      7319      2413  TIP3      H1              8.4892743384      -13.9524153674      -15.5065895261  SOLV      2402            0.0000000000
      7320      2413  TIP3      H2              9.8850108988      -14.4045342682      -15.8672906016  SOLV      2402            0.0000000000
      7321      2414  TIP3      OH2            11.3544428306      -13.8239583219       -7.0873802414  SOLV      2403            0.0000000000
      7322      2414  TIP3      H1             11.3476798831      -12.9757225434       -6.6031537215  SOLV      2403            0.0000000000
      7323      2414  TIP3      H2             10.4967975415      -13.7660610417       -7.5543871603  SOLV      2403            0.0000000000
      7324      2415  TIP3      OH2             1.3447799771      -14.2442163203      -12.0848755599  SOLV      2404            0.0000000000
      7325      2415  TIP3      H1              0.9652347095      -14.8148313585      -12.7837345598  SOLV      2404            0.0000000000
      7326      2415  TIP3      H2              2.1198873466      -14.7650335673      -11.7861595940  SOLV      2404            0.0000000000
      7327      2416  TIP3      OH2             2.6768216870      -10.0588183369      -10.6482020961  SOLV      2405            0.0000000000
      7328      2416  TIP3      H1              2.4693953051      -10.4032687482      -11.5299850040  SOLV      2405            0.0000000000
      7329      2416  TIP3      H2              3.5562671806      -10.4511242331      -10.4705130879  SOLV      2405            0.0000000000
      7330      2417  TIP3      OH2             2.7394728202      -14.5101821903       -8.5627880386  SOLV      2406            0.0000000000
      7331      2417  TIP3      H1              3.0606092983      -14.7363766977       -9.4594319839  SOLV      2406            0.0000000000
      7332      2417  TIP3      H2              3.1531262964      -13.6365838350       -8.3943252444  SOLV      2406            0.0000000000
      7333      2418  TIP3      OH2             7.9203179967       -8.1203298021      -10.7424447621  SOLV      2407            0.0000000000
      7334      2418  TIP3      H1              7.8886824887       -7.4132040116      -10.0803422403  SOLV      2407            0.0000000000
      7335      2418  TIP3      H2              7.7793861133       -8.9181286846      -10.1932494261  SOLV      2407            0.0000000000
      7336      2419  TIP3      OH2             4.1314938320       -8.9830427469       -5.2851697069  SOLV      2408            0.0000000000
      7337      2419  TIP3      H1              3.5513075096       -8.3553501911       -4.7993039864  SOLV      2408            0.0000000000
      7338      2419  TIP3      H2              3.4604271802       -9.4691991494       -5.8066251386  SOLV      2408            0.0000000000
      7339      2420  TIP3      OH2             7.3906899649      -15.5921065968      -18.0106226709  SOLV      2409            0.0000000000
      7340      2420  TIP3      H1              7.9881360617      -14.9815814128      -17.5219364700  SOLV      2409            0.0000000000
      7341      2420  TIP3      H2              7.6655401788      -15.4062473967      -18.9429266159  SOLV      2409            0.0000000000
      7342      2421  TIP3      OH2             1.6543717612      -13.4526420773       -4.2274781335  SOLV      2410            0.0000000000
      7343      2421  TIP3      H1              1.7118473726      -12.5377087613       -3.8758785206  SOLV      2410            0.0000000000
      7344      2421  TIP3      H2              0.6970224326      -13.6197565596       -4.0956277786  SOLV      2410            0.0000000000
      7345      2422  TIP3      OH2             4.9004820412       -8.8488467729      -15.2493552243  SOLV      2411            0.0000000000
      7346      2422  TIP3      H1              5.7337057658       -8.3367642647      -15.2398808628  SOLV      2411            0.0000000000
      7347      2422  TIP3      H2              4.2898651493       -8.2432160865      -15.6881238654  SOLV      2411            0.0000000000
      7348      2423  TIP3      OH2             2.0238989261       -7.3505499548       -4.4121882454  SOLV      2412            0.0000000000
      7349      2423  TIP3      H1              1.6545349247       -7.2383349859       -5.3065002091  SOLV      2412            0.0000000000
      7350      2423  TIP3      H2              1.2361258763       -7.6274307792       -3.8947085846  SOLV      2412            0.0000000000
      7351      2424  TIP3      OH2            12.5818875789      -23.2252387592      -17.5115115922  SOLV      2413            0.0000000000
      7352      2424  TIP3      H1             11.7696127900      -22.9679653780      -17.0300703234  SOLV      2413            0.0000000000
      7353      2424  TIP3      H2             12.7589992713      -22.4084079084      -18.0267070939  SOLV      2413            0.0000000000
      7354      2425  TIP3      OH2             0.0445320406      -15.7977481966      -14.1371289202  SOLV      2414            0.0000000000
      7355      2425  TIP3      H1             -0.6557632405      -15.3266145392      -14.6379036524  SOLV      2414            0.0000000000
      7356      2425  TIP3      H2             -0.4048120033      -16.6177272089      -13.9088066504  SOLV      2414            0.0000000000
      7357      2426  TIP3      OH2            10.6045452980       -9.5255713823      -22.0220180940  SOLV      2415            0.0000000000
      7358      2426  TIP3      H1             10.6911601697       -8.5601098437      -22.1800320518  SOLV      2415            0.0000000000
      7359      2426  TIP3      H2             11.5365461188       -9.8152817707      -22.1380292137  SOLV      2415            0.0000000000
      7360      2427  TIP3      OH2            -2.2048982993      -11.9365720064       -4.9499210436  SOLV      2416            0.0000000000
      7361      2427  TIP3      H1             -2.9078050445      -12.0889464331       -5.6174519858  SOLV      2416            0.0000000000
      7362      2427  TIP3      H2             -1.8353023981      -12.8281075065       -4.8116977777  SOLV      2416            0.0000000000
      7363      2428  TIP3      OH2            -3.6454915737       -9.9884797286       -8.6498881957  SOLV      2417            0.0000000000
      7364      2428  TIP3      H1             -2.6788256299       -9.9326207515       -8.6449156366  SOLV      2417            0.0000000000
      7365      2428  TIP3      H2             -3.8780261925       -9.1971591982       -8.1370271548  SOLV      2417            0.0000000000
      7366      2429  TIP3      OH2            15.0631416542       -5.4649402364       -8.0538976478  SOLV      2418            0.0000000000
      7367      2429  TIP3      H1             15.0108592037       -6.4293106729       -7.9260887009  SOLV      2418            0.0000000000
      7368      2429  TIP3      H2             14.2069305481       -5.1897732086       -7.6513719509  SOLV      2418            0.0000000000
      7369      2430  TIP3      OH2             6.0330115980       -7.6682791855       -6.7517675347  SOLV      2419            0.0000000000
      7370      2430  TIP3      H1              6.0787402080       -6.7613669183       -6.3700505983  SOLV      2419            0.0000000000
      7371      2430  TIP3      H2              5.3362497009       -8.0649136072       -6.1815058610  SOLV      2419            0.0000000000
      7372      2431  TIP3      OH2             3.7320908105       -6.3729034862      -17.2067269579  SOLV      2420            0.0000000000
      7373      2431  TIP3      H1              3.2446045325       -6.5326916399      -18.0338974214  SOLV      2420            0.0000000000
      7374      2431  TIP3      H2              3.3708308346       -5.5160535885      -16.9119824258  SOLV      2420            0.0000000000
      7375      2432  TIP3      OH2            -1.9308808674       -7.8709949986      -13.3497821457  SOLV      2421            0.0000000000
      7376      2432  TIP3      H1             -1.4475665213       -7.9397571972      -12.4949700201  SOLV      2421            0.0000000000
      7377      2432  TIP3      H2             -2.4976669810       -8.6568164661      -13.2973482409  SOLV      2421            0.0000000000
      7378      2433  TIP3      OH2             5.6769651869       -7.3406736164      -20.8505752167  SOLV      2422            0.0000000000
      7379      2433  TIP3      H1              6.2673335091       -8.0372790446      -21.2129406799  SOLV      2422            0.0000000000
      7380      2433  TIP3      H2              6.0506944020       -7.2187555212      -19.9527544683  SOLV      2422            0.0000000000
      7381      2434  TIP3      OH2             6.2300703978       -6.8408654464      -18.1563822185  SOLV      2423            0.0000000000
      7382      2434  TIP3      H1              5.3410340662       -6.7428422407      -17.7480630086  SOLV      2423            0.0000000000
      7383      2434  TIP3      H2              6.7252213727       -7.2426571440      -17.4240429496  SOLV      2423            0.0000000000
      7384      2435  TIP3      OH2            13.8591978706      -14.2340833899       -5.2873579770  SOLV      2424            0.0000000000
      7385      2435  TIP3      H1             13.0509275376      -14.0916406044       -5.8021472808  SOLV      2424            0.0000000000
      7386      2435  TIP3      H2             14.0140802964      -15.1917738682       -5.4183122224  SOLV      2424            0.0000000000
      7387      2436  TIP3      OH2            -0.1478428154      -10.1390307291       -5.2366597635  SOLV      2425            0.0000000000
      7388      2436  TIP3      H1              0.2389887166      -10.1119812334       -4.3441795475  SOLV      2425            0.0000000000
      7389      2436  TIP3      H2             -0.9144183114      -10.7355804776       -5.1042843920  SOLV      2425            0.0000000000
      7390      2437  TIP3      OH2             3.8610404635      -21.8866971458       -7.2089687255  SOLV      2426            0.0000000000
      7391      2437  TIP3      H1              2.9771787548      -22.1800817421       -7.5160020780  SOLV      2426            0.0000000000
      7392      2437  TIP3      H2              3.5971897792      -21.0757925512       -6.7294980370  SOLV      2426            0.0000000000
      7393      2438  TIP3      OH2             9.2148219399      -20.7543074984       -5.2864477929  SOLV      2427            0.0000000000
      7394      2438  TIP3      H1              9.8971096539      -21.0322827184       -4.6431635302  SOLV      2427            0.0000000000
      7395      2438  TIP3      H2              8.3776062645      -20.9264569402       -4.8097606660  SOLV      2427            0.0000000000
      7396      2439  TIP3      OH2            11.5470405454      -16.4516479170       -6.1271421026  SOLV      2428            0.0000000000
      7397      2439  TIP3      H1             11.0301603089      -16.4508161164       -5.2906219712  SOLV      2428            0.0000000000
      7398      2439  TIP3      H2             11.3510503546      -15.5672962123       -6.4961394718  SOLV      2428            0.0000000000
      7399      2440  TIP3      OH2             8.1770063091      -15.2283551212      -20.5625338489  SOLV      2429            0.0000000000
      7400      2440  TIP3      H1              7.8273299066      -15.4086288937      -21.4555479444  SOLV      2429            0.0000000000
      7401      2440  TIP3      H2              9.0113222334      -14.7681931001      -20.7846313875  SOLV      2429            0.0000000000
      7402      2441  TIP3      OH2             5.2426952392      -21.4019205397      -17.5182064780  SOLV      2430            0.0000000000
      7403      2441  TIP3      H1              4.9399373646      -21.4580293892      -16.5903172786  SOLV      2430            0.0000000000
      7404      2441  TIP3      H2              4.8853965454      -22.2381922480      -17.8695313604  SOLV      2430            0.0000000000
      7405      2442  TIP3      OH2             3.1818631301      -16.7139853363       -7.0540744992  SOLV      2431            0.0000000000
      7406      2442  TIP3      H1              2.6679711954      -16.5020003395       -6.2460932849  SOLV      2431            0.0000000000
      7407      2442  TIP3      H2              3.0323704806      -15.8979134989       -7.5864601431  SOLV      2431            0.0000000000
      7408      2443  TIP3      OH2             2.0252767042      -17.8673961165      -11.9215899222  SOLV      2432            0.0000000000
      7409      2443  TIP3      H1              1.0937270663      -18.1027114268      -11.7243631169  SOLV      2432            0.0000000000
      7410      2443  TIP3      H2              2.1223956701      -18.2821631707      -12.8079686418  SOLV      2432            0.0000000000
      7411      2444  TIP3      OH2             6.9064447222      -17.0449920366      -14.6309301557  SOLV      2433            0.0000000000
      7412      2444  TIP3      H1              6.4183887719      -16.3134509719      -15.0690973608  SOLV      2433            0.0000000000
      7413      2444  TIP3      H2              7.4758422508      -17.3638153023      -15.3595273434  SOLV      2433            0.0000000000
      7414      2445  TIP3      OH2             8.6652231856      -14.2952250044       -3.8315185875  SOLV      2434            0.0000000000
      7415      2445  TIP3      H1              8.4599304024      -15.0004767389       -3.1811185510  SOLV      2434            0.0000000000
      7416      2445  TIP3      H2              9.5910405789      -14.1011156608       -3.6011227990  SOLV      2434            0.0000000000
      7417      2446  TIP3      OH2             8.4601976795      -16.7615956574      -12.2592360995  SOLV      2435            0.0000000000
      7418      2446  TIP3      H1              7.8422922323      -16.4486752467      -12.9502930632  SOLV      2435            0.0000000000
      7419      2446  TIP3      H2              8.8169232861      -17.5414048082      -12.7345007642  SOLV      2435            0.0000000000
      7420      2447  TIP3      OH2             1.3904552225      -16.4359727115       -4.9895874499  SOLV      2436            0.0000000000
      7421      2447  TIP3      H1              1.5545595847      -15.7352196172       -4.3399645194  SOLV      2436            0.0000000000
      7422      2447  TIP3      H2              1.2727274092      -17.2245230970       -4.4270553050  SOLV      2436            0.0000000000
      7423      2448  TIP3      OH2             1.7076587668      -21.8032741674      -17.8433101297  SOLV      2437            0.0000000000
      7424      2448  TIP3      H1              1.7264140305      -21.5902278062      -16.8884777317  SOLV      2437            0.0000000000
      7425      2448  TIP3      H2              1.0628454159      -21.1380488873      -18.1655616570  SOLV      2437            0.0000000000
      7426      2449  TIP3      OH2            -2.6763241967      -21.2870988906       -9.1596709939  SOLV      2438            0.0000000000
      7427      2449  TIP3      H1             -1.9772356594      -20.9074367083       -8.5867628491  SOLV      2438            0.0000000000
      7428      2449  TIP3      H2             -2.2061913718      -21.4835027783       -9.9783982890  SOLV      2438            0.0000000000
      7429      2450  TIP3      OH2            -3.0732426105      -21.4147287996      -13.9933596574  SOLV      2439            0.0000000000
      7430      2450  TIP3      H1             -2.6554225326      -21.0094664432      -14.7838915137  SOLV      2439            0.0000000000
      7431      2450  TIP3      H2             -3.6879018861      -20.6906313532      -13.7585165350  SOLV      2439            0.0000000000
      7432      2451  TIP3      OH2             8.5646927361      -14.3068110469       -8.0632345627  SOLV      2440            0.0000000000
      7433      2451  TIP3      H1              8.9065206019      -15.0183933858       -8.6533052790  SOLV      2440            0.0000000000
      7434      2451  TIP3      H2              8.2408898604      -14.8491678093       -7.3129775261  SOLV      2440            0.0000000000
      7435      2452  TIP3      OH2             5.3399938470      -19.7277294019      -11.3402647918  SOLV      2441            0.0000000000
      7436      2452  TIP3      H1              4.5279218300      -19.6840933991      -10.7963119793  SOLV      2441            0.0000000000
      7437      2452  TIP3      H2              6.0364586828      -19.6904895666      -10.6629177436  SOLV      2441            0.0000000000
      7438      2453  TIP3      OH2            -0.3669717441      -19.0509409154      -11.2562157366  SOLV      2442            0.0000000000
      7439      2453  TIP3      H1             -1.3097839969      -18.9626369552      -11.5385044182  SOLV      2442            0.0000000000
      7440      2453  TIP3      H2             -0.1559136293      -19.9753404881      -11.4776254138  SOLV      2442            0.0000000000
      7441      2454  TIP3      OH2             2.2705770989      -19.1564528351      -14.3145372214  SOLV      2443            0.0000000000
      7442      2454  TIP3      H1              3.2072005796      -18.9644026170      -14.5163330439  SOLV      2443            0.0000000000
      7443      2454  TIP3      H2              1.8078146627      -18.9288769180      -15.1551606476  SOLV      2443            0.0000000000
      7444      2455  TIP3      OH2            10.2242314546      -18.8970535356       -9.2959476067  SOLV      2444            0.0000000000
      7445      2455  TIP3      H1              9.9224564682      -18.7485531822       -8.3703745865  SOLV      2444            0.0000000000
      7446      2455  TIP3      H2              9.5135914356      -19.4767625411       -9.6213673942  SOLV      2444            0.0000000000
      7447      2456  TIP3      OH2             0.8463326032      -18.8631265530      -16.6002927947  SOLV      2445            0.0000000000
      7448      2456  TIP3      H1              0.1095181801      -19.2281787872      -17.1203950211  SOLV      2445            0.0000000000
      7449      2456  TIP3      H2              1.3521947095      -18.4042291877      -17.3056924891  SOLV      2445            0.0000000000
      7450      2457  TIP3      OH2            11.9992906296       -2.0097966189       -7.1281905745  SOLV      2446            0.0000000000
      7451      2457  TIP3      H1             12.0311009429       -1.7715652519       -8.0747739063  SOLV      2446            0.0000000000
      7452      2457  TIP3      H2             12.5430655467       -1.3042679439       -6.7526378560  SOLV      2446            0.0000000000
      7453      2458  TIP3      OH2             1.5268152299      -10.9659708730       -2.8813998256  SOLV      2447            0.0000000000
      7454      2458  TIP3      H1              2.2947852188      -10.5981228776       -2.4046987191  SOLV      2447            0.0000000000
      7455      2458  TIP3      H2              0.8238484486      -10.8122335215       -2.2236621030  SOLV      2447            0.0000000000
      7456      2459  TIP3      OH2             6.0992790734      -16.3725470753      -10.3581312166  SOLV      2448            0.0000000000
      7457      2459  TIP3      H1              6.8859961270      -16.6963596302      -10.8235547125  SOLV      2448            0.0000000000
      7458      2459  TIP3      H2              6.1752978030      -16.8009596940       -9.4865955651  SOLV      2448            0.0000000000
      7459      2460  TIP3      OH2             1.2702693664      -21.4885510860      -11.4973324450  SOLV      2449            0.0000000000
      7460      2460  TIP3      H1              0.9083827979      -22.2466230871      -10.9866075571  SOLV      2449            0.0000000000
      7461      2460  TIP3      H2              1.7738844258      -21.9396019222      -12.1866281988  SOLV      2449            0.0000000000
      7462      2461  TIP3      OH2             5.8664972976      -17.3579956038       -7.4219531647  SOLV      2450            0.0000000000
      7463      2461  TIP3      H1              4.9654239973      -16.9943452372       -7.3018303027  SOLV      2450            0.0000000000
      7464      2461  TIP3      H2              6.4291228524      -16.7154662604       -6.9451881426  SOLV      2450            0.0000000000
      7465      2462  TIP3      OH2             3.2502208088      -13.5061019103      -16.4928369345  SOLV      2451            0.0000000000
      7466      2462  TIP3      H1              2.5124070571      -14.1383059732      -16.6217894012  SOLV      2451            0.0000000000
      7467      2462  TIP3      H2              3.0367083684      -13.1527243212      -15.5930814268  SOLV      2451            0.0000000000
      7468      2463  TIP3      OH2            12.2218697077      -11.1447264457      -10.2270162507  SOLV      2452            0.0000000000
      7469      2463  TIP3      H1             12.4997047256      -10.6202639858      -11.0128191284  SOLV      2452            0.0000000000
      7470      2463  TIP3      H2             11.3803921424      -11.5481708674      -10.5317402767  SOLV      2452            0.0000000000
      7471      2464  TIP3      OH2             7.8128146551      -20.4229165188      -17.7531853415  SOLV      2453            0.0000000000
      7472      2464  TIP3      H1              6.8392989903      -20.5576936783      -17.7284914382  SOLV      2453            0.0000000000
      7473      2464  TIP3      H2              7.9128140966      -19.4660951991      -17.5691755249  SOLV      2453            0.0000000000
      7474      2465  TIP3      OH2             7.2407613082      -10.2655548354       -6.5194300416  SOLV      2454            0.0000000000
      7475      2465  TIP3      H1              7.5735603871      -10.3704346646       -5.6194532389  SOLV      2454            0.0000000000
      7476      2465  TIP3      H2              6.8093241789       -9.3925995583       -6.4843228290  SOLV      2454            0.0000000000
      7477      2466  TIP3      OH2             8.5010035277      -17.8744269593      -16.8063957447  SOLV      2455            0.0000000000
      7478      2466  TIP3      H1              9.4635517000      -17.7969157772      -16.6547616546  SOLV      2455            0.0000000000
      7479      2466  TIP3      H2              8.3010878576      -17.0621446122      -17.3129225452  SOLV      2455            0.0000000000
      7480      2467  TIP3      OH2             0.1636667002      -13.2862606806       -9.7522026889  SOLV      2456            0.0000000000
      7481      2467  TIP3      H1              0.5685040389      -13.5687777530      -10.5974455809  SOLV      2456            0.0000000000
      7482      2467  TIP3      H2              0.6337048421      -13.8357608615       -9.1066143691  SOLV      2456            0.0000000000
      7483      2468  TIP3      OH2             4.6911686487      -11.9956717452      -18.2646711158  SOLV      2457            0.0000000000
      7484      2468  TIP3      H1              4.1989562285      -11.1404689964      -18.2446817335  SOLV      2457            0.0000000000
      7485      2468  TIP3      H2              4.1590113954      -12.5325580105      -17.6381146754  SOLV      2457            0.0000000000
      7486      2469  TIP3      OH2            -0.9735046153      -14.1475513740       -3.6348429816  SOLV      2458            0.0000000000
      7487      2469  TIP3      H1             -0.8734986160      -14.2723144131       -2.6707208899  SOLV      2458            0.0000000000
      7488      2469  TIP3      H2             -1.7426939862      -14.7141646076       -3.8232135794  SOLV      2458            0.0000000000
      7489      2470  TIP3      OH2             6.2569926618      -12.9390891140       -3.4086166572  SOLV      2459            0.0000000000
      7490      2470  TIP3      H1              5.6195737430      -13.5217731595       -3.8523368146  SOLV      2459            0.0000000000
      7491      2470  TIP3      H2              7.1086815986      -13.2942131109       -3.7386624444  SOLV      2459            0.0000000000
      7492      2471  TIP3      OH2             8.7907593646       -7.6204675081       -7.6575787221  SOLV      2460            0.0000000000
      7493      2471  TIP3      H1              7.8478428119       -7.6726549531       -7.4187430391  SOLV      2460            0.0000000000
      7494      2471  TIP3      H2              9.1498779982       -7.2057894951       -6.8359947092  SOLV      2460            0.0000000000
      7495      2472  TIP3      OH2            12.8683179755      -16.9185831412      -18.4547480056  SOLV      2461            0.0000000000
      7496      2472  TIP3      H1             12.2677163243      -17.3559383424      -19.1042821155  SOLV      2461            0.0000000000
      7497      2472  TIP3      H2             12.8478729274      -16.0188056683      -18.8518143327  SOLV      2461            0.0000000000
      7498      2473  TIP3      OH2            15.1299649557       -8.3813712786       -7.6585147909  SOLV      2462            0.0000000000
      7499      2473  TIP3      H1             14.1534473834       -8.4334792464       -7.7502809702  SOLV      2462            0.0000000000
      7500      2473  TIP3      H2             15.3948225320       -8.6786869066       -8.5602749240  SOLV      2462            0.0000000000
      7501      2474  TIP3      OH2             9.8242074342       -8.7792758959      -19.4160046984  SOLV      2463            0.0000000000
      7502      2474  TIP3      H1              9.6985173115       -9.5051719895      -18.7920235812  SOLV      2463            0.0000000000
      7503      2474  TIP3      H2             10.0607127690       -9.2318529366      -20.2462147771  SOLV      2463            0.0000000000
      7504      2475  TIP3      OH2             9.8848045554      -12.4797335077      -11.0808488354  SOLV      2464            0.0000000000
      7505      2475  TIP3      H1              8.9475097095      -12.7170099251      -10.9407975443  SOLV      2464            0.0000000000
      7506      2475  TIP3      H2             10.2130816313      -13.2891982587      -11.5197377340  SOLV      2464            0.0000000000
      7507      2476  TIP3      OH2             1.2064084035      -10.2041868229      -13.5117999134  SOLV      2465            0.0000000000
      7508      2476  TIP3      H1              1.1400235494       -9.3937330594      -14.0543834952  SOLV      2465            0.0000000000
      7509      2476  TIP3      H2              0.2827657024      -10.3514660015      -13.2797028766  SOLV      2465            0.0000000000
      7510      2477  TIP3      OH2            -3.1257725780      -17.1992931692      -16.3855695401  SOLV      2466            0.0000000000
      7511      2477  TIP3      H1             -2.7090839731      -16.3328370065      -16.1880430545  SOLV      2466            0.0000000000
      7512      2477  TIP3      H2             -3.9113145145      -17.1590167958      -15.7947745734  SOLV      2466            0.0000000000
      7513      2478  TIP3      OH2             2.4674476920      -12.6011459045      -14.0866204994  SOLV      2467            0.0000000000
      7514      2478  TIP3      H1              2.1498415066      -11.6931046981      -13.9032293373  SOLV      2467            0.0000000000
      7515      2478  TIP3      H2              2.1338377937      -13.0827980635      -13.3086546645  SOLV      2467            0.0000000000
      7516      2479  TIP3      OH2             3.8983916092       -6.8030830842       -8.7842691797  SOLV      2468            0.0000000000
      7517      2479  TIP3      H1              4.3353159920       -6.0589785123       -9.2407491460  SOLV      2468            0.0000000000
      7518      2479  TIP3      H2              4.6380150326       -7.1855443449       -8.2825142854  SOLV      2468            0.0000000000
      7519      2480  TIP3      OH2             0.3536588445       -7.8299947898      -14.9816252171  SOLV      2469            0.0000000000
      7520      2480  TIP3      H1             -0.4924715770       -7.7314518479      -14.4999892458  SOLV      2469            0.0000000000
      7521      2480  TIP3      H2              0.6896549865       -6.9055235125      -14.9508686806  SOLV      2469            0.0000000000
      7522      2481  TIP3      OH2             7.7230795827      -10.4578834038       -9.1982169632  SOLV      2470            0.0000000000
      7523      2481  TIP3      H1              7.6079645982      -10.4530616948       -8.2201857117  SOLV      2470            0.0000000000
      7524      2481  TIP3      H2              8.5440153064      -10.9604400216       -9.2895566104  SOLV      2470            0.0000000000
      7525      2482  TIP3      OH2             7.5451584815      -11.5009148593      -20.3506479995  SOLV      2471            0.0000000000
      7526      2482  TIP3      H1              8.0807608666      -11.7491510157      -19.5621930350  SOLV      2471            0.0000000000
      7527      2482  TIP3      H2              6.6611984496      -11.7687405313      -20.0601294502  SOLV      2471            0.0000000000
      7528      2483  TIP3      OH2            10.2350684455       -5.2815582186       -8.6539726963  SOLV      2472            0.0000000000
      7529      2483  TIP3      H1              9.4970214696       -5.8934102318       -8.4584474645  SOLV      2472            0.0000000000
      7530      2483  TIP3      H2              9.9392525666       -4.9055951723       -9.4944756793  SOLV      2472            0.0000000000
      7531      2484  TIP3      OH2            10.8498286145       -6.7235092552      -22.1980136023  SOLV      2473            0.0000000000
      7532      2484  TIP3      H1             11.2924660939       -5.9417288228      -22.5825162704  SOLV      2473            0.0000000000
      7533      2484  TIP3      H2             10.0192726389       -6.2980147196      -21.9021003362  SOLV      2473            0.0000000000
      7534      2485  TIP3      OH2             1.0451666364      -19.0287204811       -3.5521447538  SOLV      2474            0.0000000000
      7535      2485  TIP3      H1              0.0762905611      -18.9799828581       -3.4395670428  SOLV      2474            0.0000000000
      7536      2485  TIP3      H2              1.3055791775      -19.5776530497       -2.7960480021  SOLV      2474            0.0000000000
      7537      2486  TIP3      OH2             9.1451404889      -12.1741733028      -18.2028723839  SOLV      2475            0.0000000000
      7538      2486  TIP3      H1              9.0425886086      -12.8426813181      -17.4966992627  SOLV      2475            0.0000000000
      7539      2486  TIP3      H2             10.1163839362      -12.2211785199      -18.3412311779  SOLV      2475            0.0000000000
      7540      2487  TIP3      OH2            -1.7088964551       -8.1971235354       -7.2553473004  SOLV      2476            0.0000000000
      7541      2487  TIP3      H1             -1.1288525107       -8.8157668799       -6.7788774236  SOLV      2476            0.0000000000
      7542      2487  TIP3      H2             -1.7081317006       -7.4357338302       -6.6596502368  SOLV      2476            0.0000000000
      7543      2488  TIP3      OH2             1.1456160652      -11.7075431467      -20.3697264605  SOLV      2477            0.0000000000
      7544      2488  TIP3      H1              1.2829102113      -12.6417212603      -20.6097023393  SOLV      2477            0.0000000000
      7545      2488  TIP3      H2              0.9401786475      -11.7827117335      -19.4160710469  SOLV      2477            0.0000000000
      7546      2489  TIP3      OH2             0.5906691645      -11.6511867511      -17.6553019910  SOLV      2478            0.0000000000
      7547      2489  TIP3      H1              1.3332814566      -11.8978463265      -17.0871929755  SOLV      2478            0.0000000000
      7548      2489  TIP3      H2              0.6035735725      -10.6696901015      -17.5782017395  SOLV      2478            0.0000000000
      7549      2490  TIP3      OH2            -2.0807236292      -14.7369535230      -15.5961067799  SOLV      2479            0.0000000000
      7550      2490  TIP3      H1             -2.7463856089      -14.2789668314      -15.0369510373  SOLV      2479            0.0000000000
      7551      2490  TIP3      H2             -1.9587440688      -14.0592501413      -16.2907336317  SOLV      2479            0.0000000000
      7552      2491  TIP3      OH2             9.5160141500      -18.3863237234       -6.6970530949  SOLV      2480            0.0000000000
      7553      2491  TIP3      H1             10.3082484828      -17.9677327887       -6.3194883860  SOLV      2480            0.0000000000
      7554      2491  TIP3      H2              9.3951212691      -19.1782265254       -6.1316188207  SOLV      2480            0.0000000000
      7555      2492  TIP3      OH2             8.3167225648      -20.9163704081      -14.9776010754  SOLV      2481            0.0000000000
      7556      2492  TIP3      H1              8.1699321747      -20.6983504979      -15.9199718004  SOLV      2481            0.0000000000
      7557      2492  TIP3      H2              8.7043586704      -20.0796776615      -14.6373892968  SOLV      2481            0.0000000000
      7558      2493  TIP3      OH2             3.2789710529       -9.6962934993      -18.1796004131  SOLV      2482            0.0000000000
      7559      2493  TIP3      H1              2.4027985298       -9.4739030507      -17.8084767247  SOLV      2482            0.0000000000
      7560      2493  TIP3      H2              3.4282257966       -8.9157193297      -18.7362696029  SOLV      2482            0.0000000000
      7561      2494  TIP3      OH2             5.0926632213      -19.0376986975      -14.0206580872  SOLV      2483            0.0000000000
      7562      2494  TIP3      H1              5.7332811433      -18.3138018154      -14.2005445746  SOLV      2483            0.0000000000
      7563      2494  TIP3      H2              5.1856929165      -19.1339541979      -13.0486328537  SOLV      2483            0.0000000000
      7564      2495  TIP3      OH2             7.8424195745      -15.9062089806       -5.9826802583  SOLV      2484            0.0000000000
      7565      2495  TIP3      H1              8.0999963236      -15.3630079169       -5.2085619548  SOLV      2484            0.0000000000
      7566      2495  TIP3      H2              8.3789306552      -16.7082128702       -5.8662116117  SOLV      2484            0.0000000000
      7567      2496  TIP3      OH2             6.5512231583      -21.8708520291      -13.0336032307  SOLV      2485            0.0000000000
      7568      2496  TIP3      H1              6.4522284734      -21.0898470463      -12.4554429132  SOLV      2485            0.0000000000
      7569      2496  TIP3      H2              7.1988666741      -21.5252104096      -13.6925999978  SOLV      2485            0.0000000000
      7570      2497  TIP3      OH2             0.7394029255       -8.9415643668      -17.4685339387  SOLV      2486            0.0000000000
      7571      2497  TIP3      H1              0.4360653303       -8.2324002333      -18.0786065515  SOLV      2486            0.0000000000
      7572      2497  TIP3      H2              0.5717673665       -8.5237581507      -16.5937653941  SOLV      2486            0.0000000000
      7573      2498  TIP3      OH2             1.7212494472      -21.7420596727      -15.0749532222  SOLV      2487            0.0000000000
      7574      2498  TIP3      H1              1.7072111403      -20.8361968385      -14.7000325746  SOLV      2487            0.0000000000
      7575      2498  TIP3      H2              2.6837676161      -21.9194964341      -15.0069329070  SOLV      2487            0.0000000000
      7576      2499  TIP3      OH2            14.2266482254      -16.8920149733       -6.0495148788  SOLV      2488            0.0000000000
      7577      2499  TIP3      H1             13.2444232626      -16.9312525776       -6.0529474603  SOLV      2488            0.0000000000
      7578      2499  TIP3      H2             14.4200931489      -17.1633633985       -6.9573288481  SOLV      2488            0.0000000000
      7579      2500  TIP3      OH2            10.7499858758      -14.9418670583      -12.2511950197  SOLV      2489            0.0000000000
      7580      2500  TIP3      H1              9.9913368970      -15.5358597454      -12.1211176153  SOLV      2489            0.0000000000
      7581      2500  TIP3      H2             11.4671624152      -15.4045876668      -11.7680611393  SOLV      2489            0.0000000000
      7582      2501  TIP3      OH2            -2.1057177024      -12.7101200111      -17.5709802350  SOLV      2490            0.0000000000
      7583      2501  TIP3      H1             -1.4192728296      -12.0255899075      -17.4656590221  SOLV      2490            0.0000000000
      7584      2501  TIP3      H2             -1.6591842740      -13.2736116487      -18.2406673051  SOLV      2490            0.0000000000
      7585      2502  TIP3      OH2            -2.7297433903      -19.9150795673      -16.2473587819  SOLV      2491            0.0000000000
      7586      2502  TIP3      H1             -2.6278001749      -18.9408962237      -16.2286709345  SOLV      2491            0.0000000000
      7587      2502  TIP3      H2             -3.5873312002      -19.9954184821      -16.6807672670  SOLV      2491            0.0000000000
      7588      2503  TIP3      OH2            10.3585573056       -5.3575922102      -12.7340898178  SOLV      2492            0.0000000000
      7589      2503  TIP3      H1              9.9697498213       -4.7250039590      -13.3689169488  SOLV      2492            0.0000000000
      7590      2503  TIP3      H2             11.3097364226       -5.1337509930      -12.8578324419  SOLV      2492            0.0000000000
      7591      2504  TIP3      OH2             1.2239662858      -22.6890001319       -7.5425488768  SOLV      2493            0.0000000000
      7592      2504  TIP3      H1              0.9113394930      -23.0337510198       -8.4046639006  SOLV      2493            0.0000000000
      7593      2504  TIP3      H2              1.1087719327      -23.4651163027       -6.9571527353  SOLV      2493            0.0000000000
      7594      2505  TIP3      OH2            -3.4990796499      -10.5965361749      -13.7523136524  SOLV      2494            0.0000000000
      7595      2505  TIP3      H1             -4.0342240028      -10.2427064261      -13.0275707988  SOLV      2494            0.0000000000
      7596      2505  TIP3      H2             -3.8607514109      -10.1060703492      -14.5297681601  SOLV      2494            0.0000000000
      7597      2506  TIP3      OH2             3.0894640756       -5.5082719093       -2.5964284235  SOLV      2495            0.0000000000
      7598      2506  TIP3      H1              3.9934010332       -5.8765310719       -2.5735787572  SOLV      2495            0.0000000000
      7599      2506  TIP3      H2              2.7020769169       -6.0986267420       -3.2704409983  SOLV      2495            0.0000000000
      7600      2507  TIP3      OH2             2.7698026543       -9.6911303471      -21.3049801182  SOLV      2496            0.0000000000
      7601      2507  TIP3      H1              2.2260626344      -10.4142738476      -20.9140126917  SOLV      2496            0.0000000000
      7602      2507  TIP3      H2              3.5427357292      -10.1938582334      -21.6167718860  SOLV      2496            0.0000000000
      7603      2508  TIP3      OH2             9.4418154054       -6.4179240771       -5.3409169788  SOLV      2497            0.0000000000
      7604      2508  TIP3      H1              9.1744777798       -6.9437727411       -4.5533392870  SOLV      2497            0.0000000000
      7605      2508  TIP3      H2             10.0164997396       -5.7420815883       -4.9315225942  SOLV      2497            0.0000000000
      7606      2509  TIP3      OH2             7.1322706576       -9.3129225752      -22.1312446413  SOLV      2498            0.0000000000
      7607      2509  TIP3      H1              7.5712479087       -9.9121662457      -21.4979870622  SOLV      2498            0.0000000000
      7608      2509  TIP3      H2              7.7268404059       -9.3465666176      -22.9047345594  SOLV      2498            0.0000000000
      7609      2510  TIP3      OH2            -0.5007596689      -11.0960980074       -0.9380944992  SOLV      2499            0.0000000000
      7610      2510  TIP3      H1             -0.3819264999      -12.0567051097       -1.0533469806  SOLV      2499            0.0000000000
      7611      2510  TIP3      H2             -1.3716910912      -10.9672528819       -1.3788129519  SOLV      2499            0.0000000000
      7612      2511  TIP3      OH2            -0.7383568888      -14.5573060117      -19.0084055727  SOLV      2500            0.0000000000
      7613      2511  TIP3      H1             -0.1505930896      -14.8013647278      -18.2695944381  SOLV      2500            0.0000000000
      7614      2511  TIP3      H2             -0.0788880256      -14.4940983361      -19.7350969195  SOLV      2500            0.0000000000
      7615      2512  TIP3      OH2             5.4958294008      -10.1819252445       -3.2087893862  SOLV      2501            0.0000000000
      7616      2512  TIP3      H1              5.1127588819       -9.8899697670       -4.0631903909  SOLV      2501            0.0000000000
      7617      2512  TIP3      H2              5.7980281058      -11.0910046322       -3.4008702005  SOLV      2501            0.0000000000
      7618      2513  TIP3      OH2             4.4075774554      -12.5127808373      -20.9496263895  SOLV      2502            0.0000000000
      7619      2513  TIP3      H1              4.4282747092      -12.3976449223      -19.9772895070  SOLV      2502            0.0000000000
      7620      2513  TIP3      H2              4.4078707977      -13.4922553373      -21.0146077087  SOLV      2502            0.0000000000
      7621      2514  TIP3      OH2            10.4525286486      -10.0246112065       -7.1513238676  SOLV      2503            0.0000000000
      7622      2514  TIP3      H1             11.2240673462       -9.6103661931       -7.5878537265  SOLV      2503            0.0000000000
      7623      2514  TIP3      H2              9.7683613184       -9.3517858764       -7.3176526474  SOLV      2503            0.0000000000
      7624      2515  TIP3      OH2             0.6513945540      -13.7465863233       -1.1590836226  SOLV      2504            0.0000000000
      7625      2515  TIP3      H1              1.4807725585      -14.0752706603       -1.5264779399  SOLV      2504            0.0000000000
      7626      2515  TIP3      H2              0.9290908665      -13.4447336883       -0.2726551114  SOLV      2504            0.0000000000
      7627      2516  TIP3      OH2             1.2645264725      -15.4318321255      -16.8619673911  SOLV      2505            0.0000000000
      7628      2516  TIP3      H1              1.0103063059      -15.7988102206      -15.9978499147  SOLV      2505            0.0000000000
      7629      2516  TIP3      H2              1.6723583562      -16.1987705292      -17.3123459656  SOLV      2505            0.0000000000
      7630      2517  TIP3      OH2             4.0554501352      -14.8035463707       -4.5047796391  SOLV      2506            0.0000000000
      7631      2517  TIP3      H1              3.2440078572      -14.2502462799       -4.5212858108  SOLV      2506            0.0000000000
      7632      2517  TIP3      H2              4.5456421405      -14.4570921351       -5.2877721235  SOLV      2506            0.0000000000
      7633      2518  TIP3      OH2             2.3573846872      -17.5162480285      -18.4260097892  SOLV      2507            0.0000000000
      7634      2518  TIP3      H1              2.1100145800      -17.3902251738      -19.3670803527  SOLV      2507            0.0000000000
      7635      2518  TIP3      H2              3.3361022266      -17.4870441794      -18.4968239096  SOLV      2507            0.0000000000
      7636      2519  TIP3      OH2             9.1496492794      -10.8349109600       -3.1663573533  SOLV      2508            0.0000000000
      7637      2519  TIP3      H1              9.9300616291      -11.0620297260       -3.6855279736  SOLV      2508            0.0000000000
      7638      2519  TIP3      H2              9.1525127472      -11.5104462810       -2.4666814949  SOLV      2508            0.0000000000
      7639      2520  TIP3      OH2            10.4978246502      -14.2486274498      -21.7248211520  SOLV      2509            0.0000000000
      7640      2520  TIP3      H1             10.3141550406      -14.6612073799      -22.5923721084  SOLV      2509            0.0000000000
      7641      2520  TIP3      H2             10.1774397535      -13.3359298962      -21.9189744212  SOLV      2509            0.0000000000
      7642      2521  TIP3      OH2             5.2913154702      -16.9041906865       -3.3222126673  SOLV      2510            0.0000000000
      7643      2521  TIP3      H1              5.2625408507      -17.6802079202       -3.9170987397  SOLV      2510            0.0000000000
      7644      2521  TIP3      H2              4.8381681251      -16.2173286612       -3.8638653526  SOLV      2510            0.0000000000
      7645      2522  TIP3      OH2             5.2827611118      -19.0634944921       -5.1913399362  SOLV      2511            0.0000000000
      7646      2522  TIP3      H1              5.5609926919      -18.6219168121       -6.0187179005  SOLV      2511            0.0000000000
      7647      2522  TIP3      H2              4.3441435530      -19.2739027520       -5.3855827976  SOLV      2511            0.0000000000
      7648      2523  TIP3      OH2             5.5029578815      -13.7231700221       -6.4734254571  SOLV      2512            0.0000000000
      7649      2523  TIP3      H1              6.3646094168      -13.5029738998       -6.8502215288  SOLV      2512            0.0000000000
      7650      2523  TIP3      H2              4.9149913374      -13.0804033529       -6.9275788722  SOLV      2512            0.0000000000
      7651      2524  TIP3      OH2            11.3653995048      -14.0546427166       -2.6984335155  SOLV      2513            0.0000000000
      7652      2524  TIP3      H1             11.9025229265      -14.8597915167       -2.7315696940  SOLV      2513            0.0000000000
      7653      2524  TIP3      H2             11.9754354702      -13.3944669087       -3.0615588964  SOLV      2513            0.0000000000
      7654      2525  TIP3      OH2            11.7551181485      -11.5271181176       -5.3251164426  SOLV      2514            0.0000000000
      7655      2525  TIP3      H1             11.1736111328      -10.9656359209       -5.8923548125  SOLV      2514            0.0000000000
      7656      2525  TIP3      H2             12.6324080422      -11.2836439770       -5.7007213067  SOLV      2514            0.0000000000
      7657      2526  TIP3      OH2             4.0966430764      -15.8976424904       -0.8989942924  SOLV      2515            0.0000000000
      7658      2526  TIP3      H1              3.3943073706      -16.5670511468       -0.7668946339  SOLV      2515            0.0000000000
      7659      2526  TIP3      H2              4.3636200878      -16.0767103690       -1.8213397179  SOLV      2515            0.0000000000
      7660      2527  TIP3      OH2             6.5870856984      -21.4484542013       -4.4815145334  SOLV      2516            0.0000000000
      7661      2527  TIP3      H1              6.0892708790      -20.6387037461       -4.7287832672  SOLV      2516            0.0000000000
      7662      2527  TIP3      H2              5.9053291584      -22.1402557037       -4.6037173316  SOLV      2516            0.0000000000
      7663      2528  TIP3      OH2             7.8608388478      -16.4645176241       -2.3552473451  SOLV      2517            0.0000000000
      7664      2528  TIP3      H1              7.6314401194      -16.5979311261       -1.4164589896  SOLV      2517            0.0000000000
      7665      2528  TIP3      H2              6.9849769593      -16.6578784231       -2.7566074653  SOLV      2517            0.0000000000
      7666      2529  TIP3      OH2            10.2371312779      -16.9094400969       -3.8036326546  SOLV      2518            0.0000000000
      7667      2529  TIP3      H1              9.4885520855      -16.8767499635       -3.1738916303  SOLV      2518            0.0000000000
      7668      2529  TIP3      H2             10.9826856073      -17.1789546583       -3.2314204168  SOLV      2518            0.0000000000
      7669      2530  TIP3      OH2            12.5603414333      -17.4597445494       -2.3023588846  SOLV      2519            0.0000000000
      7670      2530  TIP3      H1             12.6697943568      -18.4225245983       -2.1624803194  SOLV      2519            0.0000000000
      7671      2530  TIP3      H2             12.5255468991      -17.1079368840       -1.3893266248  SOLV      2519            0.0000000000
      7672      2531  TIP3      OH2             2.4159219126      -18.0720516356       -0.4032874551  SOLV      2520            0.0000000000
      7673      2531  TIP3      H1              2.4391621858      -18.9924853207       -0.7307335243  SOLV      2520            0.0000000000
      7674      2531  TIP3      H2              2.7807067545      -18.1867914127        0.4971540807  SOLV      2520            0.0000000000
      7675      2532  TIP3      OH2             7.5184865295      -21.3572479565       -1.9047748751  SOLV      2521            0.0000000000
      7676      2532  TIP3      H1              8.1658263913      -22.0844167684       -1.9929709388  SOLV      2521            0.0000000000
      7677      2532  TIP3      H2              7.1164181362      -21.3714965279       -2.7983517689  SOLV      2521            0.0000000000
      7678      2533  TIP3      OH2             8.1981801922      -19.2181675972       -0.3231460478  SOLV      2522            0.0000000000
      7679      2533  TIP3      H1              7.9832691301      -19.9178628073       -0.9791931648  SOLV      2522            0.0000000000
      7680      2533  TIP3      H2              7.4234822086      -18.6211095237       -0.4016189836  SOLV      2522            0.0000000000
      7681      2534  TIP3      OH2             0.4360235503       -6.9133928610      -19.3493112036  SOLV      2523            0.0000000000
      7682      2534  TIP3      H1              1.3874246628       -7.0150618842      -19.5405571356  SOLV      2523            0.0000000000
      7683      2534  TIP3      H2              0.1706763890       -6.3745119955      -20.1189103361  SOLV      2523            0.0000000000
      7684      2535  TIP3      OH2            -4.8028436150      -13.0662552914      -17.2463406342  SOLV      2524            0.0000000000
      7685      2535  TIP3      H1             -3.8487926862      -12.8614600013      -17.3663168967  SOLV      2524            0.0000000000
      7686      2535  TIP3      H2             -4.8562690344      -13.9620181998      -17.6396028233  SOLV      2524            0.0000000000
      7687      2536  TIP3      OH2            -5.5772257737       -6.9771371020      -13.0394724296  SOLV      2525            0.0000000000
      7688      2536  TIP3      H1             -6.2538087332       -7.5695177054      -13.4341144058  SOLV      2525            0.0000000000
      7689      2536  TIP3      H2             -5.1598230422       -7.5829791239      -12.3910425058  SOLV      2525            0.0000000000
      7690      2537  TIP3      OH2            -4.2405832065       -8.5469809520      -11.1895452575  SOLV      2526            0.0000000000
      7691      2537  TIP3      H1             -4.4033988776       -9.1945732441      -10.4817610529  SOLV      2526            0.0000000000
      7692      2537  TIP3      H2             -3.7446468275       -7.8750526727      -10.6829991324  SOLV      2526            0.0000000000
      7693      2538  TIP3      OH2            12.9084437042       -4.4206211354      -13.1515366046  SOLV      2527            0.0000000000
      7694      2538  TIP3      H1             13.4167150582       -4.0171404791      -12.4323615690  SOLV      2527            0.0000000000
      7695      2538  TIP3      H2             13.5152332993       -4.3339908309      -13.9039024322  SOLV      2527            0.0000000000
      7696      2539  TIP3      OH2            13.2175053075       -4.2885922451      -10.2653155685  SOLV      2528            0.0000000000
      7697      2539  TIP3      H1             12.8234059443       -5.1749921829      -10.3969005463  SOLV      2528            0.0000000000
      7698      2539  TIP3      H2             14.0406372410       -4.5332115383       -9.8189685920  SOLV      2528            0.0000000000
      7699      2540  TIP3      OH2            13.7912645784       -7.4999357796       -4.5944856564  SOLV      2529            0.0000000000
      7700      2540  TIP3      H1             13.0331840253       -7.3665221289       -3.9861774989  SOLV      2529            0.0000000000
      7701      2540  TIP3      H2             14.1781197462       -6.6024946233       -4.6048561946  SOLV      2529            0.0000000000
      7702      2541  TIP3      OH2            11.8979407635      -12.3793673577      -18.4556781032  SOLV      2530            0.0000000000
      7703      2541  TIP3      H1             12.5381363429      -11.7196274164      -18.7950309657  SOLV      2530            0.0000000000
      7704      2541  TIP3      H2             12.3789992524      -12.7274607702      -17.6716610669  SOLV      2530            0.0000000000
      7705      2542  TIP3      OH2            13.1965107112      -13.7120005509      -16.4238005176  SOLV      2531            0.0000000000
      7706      2542  TIP3      H1             12.5332783761      -14.0841909487      -15.8049250056  SOLV      2531            0.0000000000
      7707      2542  TIP3      H2             13.8775549532      -13.3476955011      -15.8185451049  SOLV      2531            0.0000000000
      7708      2543  TIP3      OH2            13.7503413726       -9.8064800776      -12.0511107763  SOLV      2532            0.0000000000
      7709      2543  TIP3      H1             14.2607307245      -10.4655687746      -12.5570200831  SOLV      2532            0.0000000000
      7710      2543  TIP3      H2             13.8460284483       -9.0093595944      -12.6263787118  SOLV      2532            0.0000000000
      7711      2544  TIP3      OH2            12.0414400358       -6.8528778778      -10.1363598292  SOLV      2533            0.0000000000
      7712      2544  TIP3      H1             11.3199710568       -6.4878172872       -9.5921959949  SOLV      2533            0.0000000000
      7713      2544  TIP3      H2             11.5587309109       -7.2606513623      -10.8868431439  SOLV      2533            0.0000000000
      7714      2545  TIP3      OH2            12.5532773705      -14.6093263591      -19.9523042705  SOLV      2534            0.0000000000
      7715      2545  TIP3      H1             11.8364360444      -14.5853046215      -20.6257383311  SOLV      2534            0.0000000000
      7716      2545  TIP3      H2             12.2746069982      -13.8516856303      -19.3960108981  SOLV      2534            0.0000000000
      7717      2546  TIP3      OH2            11.2623835503      -17.8872134946      -20.4165726605  SOLV      2535            0.0000000000
      7718      2546  TIP3      H1             10.8075530409      -17.5168069772      -21.1808565972  SOLV      2535            0.0000000000
      7719      2546  TIP3      H2             11.0404452561      -18.8389178960      -20.5115395717  SOLV      2535            0.0000000000
      7720      2547  TIP3      OH2            11.2904426383      -15.0746027356      -14.9427903558  SOLV      2536            0.0000000000
      7721      2547  TIP3      H1             11.3899894476      -16.0359526604      -15.0284396557  SOLV      2536            0.0000000000
      7722      2547  TIP3      H2             11.1479674954      -14.9606349254      -13.9763544307  SOLV      2536            0.0000000000
      7723      2548  TIP3      OH2            -2.4328392772      -14.4619246469       -7.4360979161  SOLV      2537            0.0000000000
      7724      2548  TIP3      H1             -2.4759760900      -14.7571209037       -8.3683948443  SOLV      2537            0.0000000000
      7725      2548  TIP3      H2             -1.4569558919      -14.4177683982       -7.3035280377  SOLV      2537            0.0000000000
      7726      2549  TIP3      OH2            14.2189598538      -10.8533969297       -6.3489895470  SOLV      2538            0.0000000000
      7727      2549  TIP3      H1             14.9302784432      -11.5168399208       -6.4870951279  SOLV      2538            0.0000000000
      7728      2549  TIP3      H2             14.4403859618      -10.1696283297       -7.0039485509  SOLV      2538            0.0000000000
      7729      2550  TIP3      OH2            16.0061408142      -12.8948072630       -6.2875774127  SOLV      2539            0.0000000000
      7730      2550  TIP3      H1             15.2700522294      -13.3711024689       -5.8472029277  SOLV      2539            0.0000000000
      7731      2550  TIP3      H2             16.7472713460      -13.5090147635       -6.1039200321  SOLV      2539            0.0000000000
      7732      2551  TIP3      OH2            10.7027492058      -20.5528693655      -20.6031128870  SOLV      2540            0.0000000000
      7733      2551  TIP3      H1             11.4273746505      -20.8672886555      -20.0268642651  SOLV      2540            0.0000000000
      7734      2551  TIP3      H2              9.9627376614      -21.1442743887      -20.3922927684  SOLV      2540            0.0000000000
      7735      2552  TIP3      OH2            11.2929935841      -17.9334521084      -16.0372863278  SOLV      2541            0.0000000000
      7736      2552  TIP3      H1             11.7093278348      -18.8180958294      -15.9044078335  SOLV      2541            0.0000000000
      7737      2552  TIP3      H2             11.8649209775      -17.5866847689      -16.7468406477  SOLV      2541            0.0000000000
      7738      2553  TIP3      OH2            12.8781503017      -16.2685632464      -11.0367152543  SOLV      2542            0.0000000000
      7739      2553  TIP3      H1             13.7306715959      -16.0251829236      -11.4664438696  SOLV      2542            0.0000000000
      7740      2553  TIP3      H2             13.0322007881      -15.8655371794      -10.1602200012  SOLV      2542            0.0000000000
      7741      2554  TIP3      OH2            13.6120580859      -14.7764415408       -8.7485657815  SOLV      2543            0.0000000000
      7742      2554  TIP3      H1             12.8364815837      -14.4162710315       -8.2789217381  SOLV      2543            0.0000000000
      7743      2554  TIP3      H2             13.9462356139      -13.9732613908       -9.2097300816  SOLV      2543            0.0000000000
      7744      2555  TIP3      OH2            -0.2559308391      -17.5777974864       -0.7520662044  SOLV      2544            0.0000000000
      7745      2555  TIP3      H1              0.7221040342      -17.6113138503       -0.6966188000  SOLV      2544            0.0000000000
      7746      2555  TIP3      H2             -0.4866310945      -18.4411522101       -0.3563314048  SOLV      2544            0.0000000000
      7747      2556  TIP3      OH2            18.0354680603      -18.8872904019       -3.1227537409  SOLV      2545            0.0000000000
      7748      2556  TIP3      H1             18.6863326488      -19.4820705550       -3.5611000407  SOLV      2545            0.0000000000
      7749      2556  TIP3      H2             17.7427180960      -18.3346577580       -3.8826053849  SOLV      2545            0.0000000000
      7750      2557  TIP3      OH2            12.3763662042      -20.4326923993      -15.6326710657  SOLV      2546            0.0000000000
      7751      2557  TIP3      H1             12.8619636261      -20.5950532641      -14.7972570411  SOLV      2546            0.0000000000
      7752      2557  TIP3      H2             11.7646668420      -21.1960445944      -15.6410676125  SOLV      2546            0.0000000000
      7753      2558  TIP3      OH2            -0.6258333552      -20.5957751806       -7.4552521560  SOLV      2547            0.0000000000
      7754      2558  TIP3      H1              0.0012696769      -21.3390867146       -7.3627145295  SOLV      2547            0.0000000000
      7755      2558  TIP3      H2             -0.0121042210      -19.8432023523       -7.5263875688  SOLV      2547            0.0000000000
      7756      2559  TIP3      OH2            -2.6284235254      -17.8936384118       -6.6918980499  SOLV      2548            0.0000000000
      7757      2559  TIP3      H1             -2.1252312018      -17.8577579236       -7.5296396409  SOLV      2548            0.0000000000
      7758      2559  TIP3      H2             -2.4601383482      -17.0159786870       -6.3264158347  SOLV      2548            0.0000000000
      7759      2560  TIP3      OH2            16.7577330842      -17.5386980401       -5.1075191548  SOLV      2549            0.0000000000
      7760      2560  TIP3      H1             15.9051881856      -17.0644214462       -5.0100485116  SOLV      2549            0.0000000000
      7761      2560  TIP3      H2             16.4655462774      -18.2564144111       -5.7048010567  SOLV      2549            0.0000000000
      7762      2561  TIP3      OH2            13.1307888336      -21.1521697469      -19.2629394854  SOLV      2550            0.0000000000
      7763      2561  TIP3      H1             13.5463522045      -21.8181377579      -19.8474067338  SOLV      2550            0.0000000000
      7764      2561  TIP3      H2             13.7860271922      -20.4251813126      -19.2745754339  SOLV      2550            0.0000000000
      7765      2562  TIP3      OH2            -2.7766244389      -22.9213384739      -11.7562301195  SOLV      2551            0.0000000000
      7766      2562  TIP3      H1             -3.6730026461      -22.9199126392      -11.3758955372  SOLV      2551            0.0000000000
      7767      2562  TIP3      H2             -2.8595919658      -22.2613560126      -12.4755503645  SOLV      2551            0.0000000000
      7768      2563  TIP3      OH2             8.8785616334       -5.6734450429      -16.5736938831  SOLV      2552            0.0000000000
      7769      2563  TIP3      H1              9.2346241493       -5.8870677362      -17.4632994842  SOLV      2552            0.0000000000
      7770      2563  TIP3      H2              9.6204208058       -5.1698540973      -16.2173493608  SOLV      2552            0.0000000000
      7771      2564  TIP3      OH2            -0.5640094308      -22.0775727701       -3.5722871075  SOLV      2553            0.0000000000
      7772      2564  TIP3      H1             -1.0739899177      -22.0751796263       -2.7461302978  SOLV      2553            0.0000000000
      7773      2564  TIP3      H2             -1.2029626467      -21.6530972717       -4.1805686387  SOLV      2553            0.0000000000
      7774      2565  TIP3      OH2            -0.1732767074       -7.9731829382       -2.8008963516  SOLV      2554            0.0000000000
      7775      2565  TIP3      H1             -1.1356777662       -8.0289737507       -2.9857126875  SOLV      2554            0.0000000000
      7776      2565  TIP3      H2             -0.1630175713       -7.3103813911       -2.0968764400  SOLV      2554            0.0000000000
      7777      2566  TIP3      OH2             1.6363313117       -7.4163780790       -7.3190102945  SOLV      2555            0.0000000000
      7778      2566  TIP3      H1              1.1179517808       -6.6659220237       -7.6766781945  SOLV      2555            0.0000000000
      7779      2566  TIP3      H2              2.4848588389       -7.2305490563       -7.7701857995  SOLV      2555            0.0000000000
      7780      2567  TIP3      OH2             6.2107077696       -5.0611284353       -5.8402693999  SOLV      2556            0.0000000000
      7781      2567  TIP3      H1              6.5597090342       -4.9819426977       -4.9378026636  SOLV      2556            0.0000000000
      7782      2567  TIP3      H2              6.8081012823       -4.4588002886       -6.3297064900  SOLV      2556            0.0000000000
      7783      2568  TIP3      OH2             7.8867247065       -3.4107587003       -7.3246947060  SOLV      2557            0.0000000000
      7784      2568  TIP3      H1              8.6035157594       -3.9983387852       -7.6033552649  SOLV      2557            0.0000000000
      7785      2568  TIP3      H2              8.3784294173       -2.7908881098       -6.7395276237  SOLV      2557            0.0000000000
      7786      2569  TIP3      OH2            15.7767596992      -19.8731167104       -6.3255790980  SOLV      2558            0.0000000000
      7787      2569  TIP3      H1             14.9012382842      -19.9430109359       -6.7447896554  SOLV      2558            0.0000000000
      7788      2569  TIP3      H2             16.1175250742      -20.7924505121       -6.4329599607  SOLV      2558            0.0000000000
      7789      2570  TIP3      OH2            -1.6291030143       -4.8416502591       -7.0006227148  SOLV      2559            0.0000000000
      7790      2570  TIP3      H1             -2.5315480780       -4.5112353447       -7.2181564778  SOLV      2559            0.0000000000
      7791      2570  TIP3      H2             -1.5526673486       -4.5275443673       -6.0898788016  SOLV      2559            0.0000000000
      7792      2571  TIP3      OH2             0.7201706531       -5.0653262213       -8.4492589470  SOLV      2560            0.0000000000
      7793      2571  TIP3      H1             -0.1347354105       -4.9258190909       -7.9797907403  SOLV      2560            0.0000000000
      7794      2571  TIP3      H2              0.5089020568       -4.7279360403       -9.3403985969  SOLV      2560            0.0000000000
      7795      2572  TIP3      OH2             5.0109542479       -4.8048705341      -10.5278121990  SOLV      2561            0.0000000000
      7796      2572  TIP3      H1              4.2720243565       -4.6483417824      -11.1466961171  SOLV      2561            0.0000000000
      7797      2572  TIP3      H2              5.0400619045       -3.9565838738      -10.0377247379  SOLV      2561            0.0000000000
      7798      2573  TIP3      OH2             7.7321930240       -5.3505284282      -10.0505650162  SOLV      2562            0.0000000000
      7799      2573  TIP3      H1              6.7603048067       -5.2485028842      -10.0657926779  SOLV      2562            0.0000000000
      7800      2573  TIP3      H2              7.9380339860       -5.4231825320      -10.9962984135  SOLV      2562            0.0000000000
      7801      2574  TIP3      OH2            -2.4805178559       -6.9117327118       -9.6759658908  SOLV      2563            0.0000000000
      7802      2574  TIP3      H1             -2.2638724529       -7.1896271485       -8.7615080458  SOLV      2563            0.0000000000
      7803      2574  TIP3      H2             -1.7540803968       -7.3661973255      -10.1557225544  SOLV      2563            0.0000000000
      7804      2575  TIP3      OH2            -0.5276088491       -8.2025822007      -11.0492977902  SOLV      2564            0.0000000000
      7805      2575  TIP3      H1             -0.4025547465       -9.0338949836      -10.5308358320  SOLV      2564            0.0000000000
      7806      2575  TIP3      H2              0.3851783333       -7.8462475548      -11.0564310146  SOLV      2564            0.0000000000
      7807      2576  TIP3      OH2             2.1381630730       -7.2833401794      -10.9706628201  SOLV      2565            0.0000000000
      7808      2576  TIP3      H1              2.4280910179       -8.2137453533      -11.0422551925  SOLV      2565            0.0000000000
      7809      2576  TIP3      H2              2.5861164353       -7.0411213595      -10.1377987955  SOLV      2565            0.0000000000
      7810      2577  TIP3      OH2             7.8686119549      -20.6944781242      -10.1034495553  SOLV      2566            0.0000000000
      7811      2577  TIP3      H1              7.4385632184      -21.4194858214       -9.6188674336  SOLV      2566            0.0000000000
      7812      2577  TIP3      H2              8.6192872475      -21.1436288231      -10.5412613806  SOLV      2566            0.0000000000
      7813      2578  TIP3      OH2            13.0204081487      -21.9202614549      -11.1093040603  SOLV      2567            0.0000000000
      7814      2578  TIP3      H1             13.3999658679      -21.3932551516      -11.8483862598  SOLV      2567            0.0000000000
      7815      2578  TIP3      H2             12.0810534008      -21.6659033670      -11.1483711681  SOLV      2567            0.0000000000
      7816      2579  TIP3      OH2            14.0005274556      -20.9475755714      -13.4615142527  SOLV      2568            0.0000000000
      7817      2579  TIP3      H1             14.7472466570      -21.4568540365      -13.8432934206  SOLV      2568            0.0000000000
      7818      2579  TIP3      H2             14.3469096293      -20.0328714747      -13.5943892865  SOLV      2568            0.0000000000
      7819      2580  TIP3      OH2             0.3270269371      -23.6297325062      -10.0220535488  SOLV      2569            0.0000000000
      7820      2580  TIP3      H1             -0.5988933911      -23.9508970089       -9.9483315015  SOLV      2569            0.0000000000
      7821      2580  TIP3      H2              0.8028850098      -24.4873655048      -10.0479961636  SOLV      2569            0.0000000000
      7822      2581  TIP3      OH2            -1.9073190122      -24.9275976145      -13.4882929147  SOLV      2570            0.0000000000
      7823      2581  TIP3      H1             -1.5621759453      -24.3459711747      -14.1835236395  SOLV      2570            0.0000000000
      7824      2581  TIP3      H2             -2.1544011198      -24.2743162259      -12.7944249795  SOLV      2570            0.0000000000
      7825      2582  TIP3      OH2             4.7986271264      -23.3220725449      -11.1665922037  SOLV      2571            0.0000000000
      7826      2582  TIP3      H1              5.3463934826      -22.8436148986      -11.8102391708  SOLV      2571            0.0000000000
      7827      2582  TIP3      H2              5.0408910129      -22.8825823482      -10.3383253660  SOLV      2571            0.0000000000
      7828      2583  TIP3      OH2            10.1632078853      -21.8114698479      -11.3349510849  SOLV      2572            0.0000000000
      7829      2583  TIP3      H1             10.2290955079      -22.1984608582      -12.2172547539  SOLV      2572            0.0000000000
      7830      2583  TIP3      H2             10.0693478296      -22.6159189351      -10.7717627944  SOLV      2572            0.0000000000
      7831      2584  TIP3      OH2            10.5307386921      -22.5538758113      -15.7034853013  SOLV      2573            0.0000000000
      7832      2584  TIP3      H1              9.6901742040      -22.0948725193      -15.5124150012  SOLV      2573            0.0000000000
      7833      2584  TIP3      H2             10.3744928672      -23.4169004609      -15.2661014516  SOLV      2573            0.0000000000
      7834      2585  TIP3      OH2            -4.6301732148       -9.1440515104      -15.7390865167  SOLV      2574            0.0000000000
      7835      2585  TIP3      H1             -5.4983390335       -9.4564010044      -16.0550266296  SOLV      2574            0.0000000000
      7836      2585  TIP3      H2             -4.7073425947       -8.1997932850      -15.9636596097  SOLV      2574            0.0000000000
      7837      2586  TIP3      OH2            -0.5186355970      -23.3119118571      -15.8763927987  SOLV      2575            0.0000000000
      7838      2586  TIP3      H1              0.1446084050      -23.2780192745      -16.5758843937  SOLV      2575            0.0000000000
      7839      2586  TIP3      H2             -0.1008623783      -22.6904982861      -15.2500465177  SOLV      2575            0.0000000000
      7840      2587  TIP3      OH2             4.4838808045      -21.5554271448      -14.8684739823  SOLV      2576            0.0000000000
      7841      2587  TIP3      H1              5.1184361071      -21.9789505552      -14.2629312124  SOLV      2576            0.0000000000
      7842      2587  TIP3      H2              4.6666202350      -20.6145101274      -14.6430522415  SOLV      2576            0.0000000000
      7843      2588  TIP3      OH2             3.1013827008       -7.3748427608      -19.8712330861  SOLV      2577            0.0000000000
      7844      2588  TIP3      H1              3.9799028016       -7.1376656896      -20.2372204092  SOLV      2577            0.0000000000
      7845      2588  TIP3      H2              2.8754756033       -8.1088252254      -20.4869783264  SOLV      2577            0.0000000000
      7846      2589  TIP3      OH2            10.1981358214       -6.1290884781      -18.9487685065  SOLV      2578            0.0000000000
      7847      2589  TIP3      H1             10.1298867269       -7.1062206160      -19.0696610416  SOLV      2578            0.0000000000
      7848      2589  TIP3      H2              9.7878425047       -5.8181285079      -19.7808636358  SOLV      2578            0.0000000000
      7849      2590  TIP3      OH2             2.3942399337      -20.8185819763       -1.0702034606  SOLV      2579            0.0000000000
      7850      2590  TIP3      H1              2.0206749950      -21.5211316303       -0.5089329482  SOLV      2579            0.0000000000
      7851      2590  TIP3      H2              3.3299614434      -20.8275086679       -0.7725681820  SOLV      2579            0.0000000000
      7852      2591  TIP3      OH2             4.9085989245      -20.8248703667        0.1241275296  SOLV      2580            0.0000000000
      7853      2591  TIP3      H1              5.7500534859      -21.0861221339       -0.2859931038  SOLV      2580            0.0000000000
      7854      2591  TIP3      H2              4.7814564275      -21.5372068092        0.7853281138  SOLV      2580            0.0000000000
      7855      2592  TIP3      OH2            -3.8972878015       -8.9849415056      -19.3633264323  SOLV      2581            0.0000000000
      7856      2592  TIP3      H1             -3.8692423829       -8.7722061161      -18.4196906899  SOLV      2581            0.0000000000
      7857      2592  TIP3      H2             -3.0172318065       -9.4062096649      -19.5088596097  SOLV      2581            0.0000000000
      7858      2593  TIP3      OH2            13.1990394956      -20.1886538843       -2.0242390719  SOLV      2582            0.0000000000
      7859      2593  TIP3      H1             13.4375467302      -20.4771905051       -1.1216279021  SOLV      2582            0.0000000000
      7860      2593  TIP3      H2             14.0687436581      -20.2205897796       -2.4810143203  SOLV      2582            0.0000000000
      7861      2594  TIP3      OH2            12.5934048264       -4.7105269520       -7.1272393115  SOLV      2583            0.0000000000
      7862      2594  TIP3      H1             11.7810258885       -5.0231120930       -7.5729455546  SOLV      2583            0.0000000000
      7863      2594  TIP3      H2             12.4002423379       -3.7514337937       -7.0682220981  SOLV      2583            0.0000000000
      7864      2595  TIP3      OH2            25.1903364742      -10.9556634116      -19.4513709976  SOLV      2584            0.0000000000
      7865      2595  TIP3      H1             24.8836440591      -10.0498408253      -19.6637048394  SOLV      2584            0.0000000000
      7866      2595  TIP3      H2             24.4387456661      -11.4728915754      -19.7898191691  SOLV      2584            0.0000000000
      7867      2596  TIP3      OH2            25.2028183280      -10.9188856675      -15.5693342698  SOLV      2585            0.0000000000
      7868      2596  TIP3      H1             25.5637519350      -11.1761744513      -14.6990188216  SOLV      2585            0.0000000000
      7869      2596  TIP3      H2             24.8303479934      -11.7537811547      -15.8893853470  SOLV      2585            0.0000000000
      7870      2597  TIP3      OH2            18.1569404056      -12.0181971207      -11.8927373692  SOLV      2586            0.0000000000
      7871      2597  TIP3      H1             18.5072330699      -12.7103349834      -11.3029304746  SOLV      2586            0.0000000000
      7872      2597  TIP3      H2             18.9571978234      -11.5142576081      -12.0997586802  SOLV      2586            0.0000000000
      7873      2598  TIP3      OH2            27.6802901144       -7.9215758075      -18.7832041140  SOLV      2587            0.0000000000
      7874      2598  TIP3      H1             27.4816453548       -8.5937992361      -18.1173004440  SOLV      2587            0.0000000000
      7875      2598  TIP3      H2             27.9581364060       -7.1667599699      -18.2384615934  SOLV      2587            0.0000000000
      7876      2599  TIP3      OH2            17.8828200309       -8.0726723288      -14.2132182621  SOLV      2588            0.0000000000
      7877      2599  TIP3      H1             17.8820083582       -9.0216172193      -14.4268412974  SOLV      2588            0.0000000000
      7878      2599  TIP3      H2             18.6687966288       -7.7699391865      -14.7003386406  SOLV      2588            0.0000000000
      7879      2600  TIP3      OH2            14.9745671898      -15.9766183169      -16.9314659203  SOLV      2589            0.0000000000
      7880      2600  TIP3      H1             14.5655620385      -15.1234186006      -16.7044864930  SOLV      2589            0.0000000000
      7881      2600  TIP3      H2             14.2313551772      -16.4058317301      -17.3953016713  SOLV      2589            0.0000000000
      7882      2601  TIP3      OH2            15.5340224052      -13.0274108909      -15.1300441135  SOLV      2590            0.0000000000
      7883      2601  TIP3      H1             16.0579263434      -13.7928286498      -14.8069677935  SOLV      2590            0.0000000000
      7884      2601  TIP3      H2             16.2155398943      -12.4794637801      -15.5525616129  SOLV      2590            0.0000000000
      7885      2602  TIP3      OH2            24.2151996008       -3.3402868603      -18.5578076697  SOLV      2591            0.0000000000
      7886      2602  TIP3      H1             24.6408015399       -4.0186323663      -19.1205615457  SOLV      2591            0.0000000000
      7887      2602  TIP3      H2             24.0523452340       -3.8346274423      -17.7448276050  SOLV      2591            0.0000000000
      7888      2603  TIP3      OH2            23.1822176336       -8.7120763452      -15.1042398523  SOLV      2592            0.0000000000
      7889      2603  TIP3      H1             23.6186225039       -9.4648753006      -15.5387906290  SOLV      2592            0.0000000000
      7890      2603  TIP3      H2             23.9879662166       -8.2162567565      -14.8442400635  SOLV      2592            0.0000000000
      7891      2604  TIP3      OH2            27.2110339032      -13.7367201045      -14.8197172515  SOLV      2593            0.0000000000
      7892      2604  TIP3      H1             27.7784942168      -14.5058236232      -14.6181914778  SOLV      2593            0.0000000000
      7893      2604  TIP3      H2             26.9699256517      -13.9270314275      -15.7458499347  SOLV      2593            0.0000000000
      7894      2605  TIP3      OH2            20.7265346006      -17.1056832055      -15.1702244624  SOLV      2594            0.0000000000
      7895      2605  TIP3      H1             20.5505212765      -16.3692702914      -15.7941985888  SOLV      2594            0.0000000000
      7896      2605  TIP3      H2             20.2295362419      -17.8230736912      -15.6193081578  SOLV      2594            0.0000000000
      7897      2606  TIP3      OH2            27.5133729314      -16.1719559085      -18.9780971707  SOLV      2595            0.0000000000
      7898      2606  TIP3      H1             28.1964023742      -16.2899746503      -18.2737607255  SOLV      2595            0.0000000000
      7899      2606  TIP3      H2             28.0868043440      -15.8587025552      -19.7005097706  SOLV      2595            0.0000000000
      7900      2607  TIP3      OH2            17.0170639810      -15.0948309366      -14.0841723767  SOLV      2596            0.0000000000
      7901      2607  TIP3      H1             17.8556081483      -15.2410968092      -13.6076251066  SOLV      2596            0.0000000000
      7902      2607  TIP3      H2             17.1890641263      -15.6267873667      -14.8918273953  SOLV      2596            0.0000000000
      7903      2608  TIP3      OH2            21.4249998034      -13.1314020202      -16.0811679878  SOLV      2597            0.0000000000
      7904      2608  TIP3      H1             22.3780969345      -13.3560283882      -16.0013218254  SOLV      2597            0.0000000000
      7905      2608  TIP3      H2             21.0571901783      -13.9635304837      -16.4462418768  SOLV      2597            0.0000000000
      7906      2609  TIP3      OH2            20.6453826483      -17.2560561770      -10.8110877046  SOLV      2598            0.0000000000
      7907      2609  TIP3      H1             20.0782224333      -16.8747360543      -11.5091231733  SOLV      2598            0.0000000000
      7908      2609  TIP3      H2             20.1104488886      -17.0469336341      -10.0177772608  SOLV      2598            0.0000000000
      7909      2610  TIP3      OH2            24.0689884355       -8.7607187228      -20.7499225303  SOLV      2599            0.0000000000
      7910      2610  TIP3      H1             23.6860109775       -8.8425505236      -21.6339717816  SOLV      2599            0.0000000000
      7911      2610  TIP3      H2             23.6491780959       -7.9261627520      -20.4483684391  SOLV      2599            0.0000000000
      7912      2611  TIP3      OH2            21.7196845980       -9.5175045445      -12.9202361025  SOLV      2600            0.0000000000
      7913      2611  TIP3      H1             21.1467986672       -8.8081248615      -12.5515753370  SOLV      2600            0.0000000000
      7914      2611  TIP3      H2             22.1374216922       -9.0571837553      -13.6810448281  SOLV      2600            0.0000000000
      7915      2612  TIP3      OH2            29.5131440111      -16.1437738233      -17.2100323554  SOLV      2601            0.0000000000
      7916      2612  TIP3      H1             29.8299655542      -16.9395186818      -16.7379566547  SOLV      2601            0.0000000000
      7917      2612  TIP3      H2             30.3636860508      -15.6658884153      -17.2963721532  SOLV      2601            0.0000000000
      7918      2613  TIP3      OH2            19.3822099479      -16.1174553843      -12.9862881018  SOLV      2602            0.0000000000
      7919      2613  TIP3      H1             19.9905131924      -15.3796996811      -12.7501823030  SOLV      2602            0.0000000000
      7920      2613  TIP3      H2             19.8778123762      -16.5049688431      -13.7444896910  SOLV      2602            0.0000000000
      7921      2614  TIP3      OH2            20.0666831528       -7.5527857213      -11.8320792538  SOLV      2603            0.0000000000
      7922      2614  TIP3      H1             19.7756859876       -6.7956796095      -12.3722549016  SOLV      2603            0.0000000000
      7923      2614  TIP3      H2             19.2465639599       -7.6869552689      -11.3090482342  SOLV      2603            0.0000000000
      7924      2615  TIP3      OH2            13.8138264682      -10.6538917254      -19.6207011733  SOLV      2604            0.0000000000
      7925      2615  TIP3      H1             13.4628210469      -10.3958967700      -20.4971571890  SOLV      2604            0.0000000000
      7926      2615  TIP3      H2             14.1056100268       -9.8015168641      -19.2675228313  SOLV      2604            0.0000000000
      7927      2616  TIP3      OH2            28.3385495213       -5.4140942165      -17.2026752002  SOLV      2605            0.0000000000
      7928      2616  TIP3      H1             27.4651646857       -5.5563722092      -16.7668060875  SOLV      2605            0.0000000000
      7929      2616  TIP3      H2             28.1731026345       -4.5745598323      -17.6692280457  SOLV      2605            0.0000000000
      7930      2617  TIP3      OH2            30.7928013233      -16.5963130938      -13.5396753870  SOLV      2606            0.0000000000
      7931      2617  TIP3      H1             29.8868096982      -16.3864947761      -13.8567930052  SOLV      2606            0.0000000000
      7932      2617  TIP3      H2             31.3073293610      -16.4694055988      -14.3449768582  SOLV      2606            0.0000000000
      7933      2618  TIP3      OH2            24.1475754854      -20.1175647672      -13.6743352109  SOLV      2607            0.0000000000
      7934      2618  TIP3      H1             23.9851595835      -21.0610801226      -13.4873899764  SOLV      2607            0.0000000000
      7935      2618  TIP3      H2             23.3906038457      -19.7076167540      -13.2009724931  SOLV      2607            0.0000000000
      7936      2619  TIP3      OH2            25.3619164356       -5.0592709472      -20.4352496352  SOLV      2608            0.0000000000
      7937      2619  TIP3      H1             25.8798086277       -5.8657282440      -20.6595634840  SOLV      2608            0.0000000000
      7938      2619  TIP3      H2             25.9906474649       -4.3723667189      -20.7701805368  SOLV      2608            0.0000000000
      7939      2620  TIP3      OH2            26.8135432485       -7.2307746294      -21.3163484022  SOLV      2609            0.0000000000
      7940      2620  TIP3      H1             26.3984682012       -8.0283957646      -21.6709766212  SOLV      2609            0.0000000000
      7941      2620  TIP3      H2             27.1734970469       -7.5562038790      -20.4614859075  SOLV      2609            0.0000000000
      7942      2621  TIP3      OH2            30.4637185229       -6.4092287930      -13.7057257573  SOLV      2610            0.0000000000
      7943      2621  TIP3      H1             30.4173144190       -7.1802670912      -14.3130485661  SOLV      2610            0.0000000000
      7944      2621  TIP3      H2             30.3379268257       -5.6586574037      -14.3224589421  SOLV      2610            0.0000000000
      7945      2622  TIP3      OH2            23.5064197019      -12.4504522325      -21.0867292332  SOLV      2611            0.0000000000
      7946      2622  TIP3      H1             22.7309095331      -11.8880488545      -21.2943115597  SOLV      2611            0.0000000000
      7947      2622  TIP3      H2             23.9823574091      -12.4593516873      -21.9376963580  SOLV      2611            0.0000000000
      7948      2623  TIP3      OH2            23.1083694038      -14.5777177148      -24.0472200390  SOLV      2612            0.0000000000
      7949      2623  TIP3      H1             23.7267321006      -14.0308229673      -23.5278683210  SOLV      2612            0.0000000000
      7950      2623  TIP3      H2             23.7492435612      -15.1563796363      -24.5123315040  SOLV      2612            0.0000000000
      7951      2624  TIP3      OH2            32.6010210734      -10.1842778027      -15.1005612260  SOLV      2613            0.0000000000
      7952      2624  TIP3      H1             31.8468846227       -9.5595544881      -15.1434043373  SOLV      2613            0.0000000000
      7953      2624  TIP3      H2             32.8731129067      -10.2204568157      -16.0276436249  SOLV      2613            0.0000000000
      7954      2625  TIP3      OH2            26.9557343587      -11.6086286962      -21.4302814145  SOLV      2614            0.0000000000
      7955      2625  TIP3      H1             26.4255042016      -11.3703628431      -20.6343206968  SOLV      2614            0.0000000000
      7956      2625  TIP3      H2             27.7841258000      -11.9130091774      -21.0010155190  SOLV      2614            0.0000000000
      7957      2626  TIP3      OH2            29.2941697539      -11.2566582707      -12.1852677684  SOLV      2615            0.0000000000
      7958      2626  TIP3      H1             29.2626273492      -10.4376296951      -11.6557272966  SOLV      2615            0.0000000000
      7959      2626  TIP3      H2             28.4565628382      -11.1845794357      -12.6822288550  SOLV      2615            0.0000000000
      7960      2627  TIP3      OH2            19.3297310882      -11.6803991012      -17.2315774221  SOLV      2616            0.0000000000
      7961      2627  TIP3      H1             18.9453566859      -12.2553516319      -17.9242369033  SOLV      2616            0.0000000000
      7962      2627  TIP3      H2             20.0949219353      -12.2047890187      -16.9178714313  SOLV      2616            0.0000000000
      7963      2628  TIP3      OH2            20.4494910820       -7.7023557010      -15.6604869007  SOLV      2617            0.0000000000
      7964      2628  TIP3      H1             20.3057355605       -7.8122906525      -16.6127401323  SOLV      2617            0.0000000000
      7965      2628  TIP3      H2             21.3838072472       -7.9616670356      -15.5592895346  SOLV      2617            0.0000000000
      7966      2629  TIP3      OH2            20.5756075376      -11.8985214604      -13.6957284136  SOLV      2618            0.0000000000
      7967      2629  TIP3      H1             20.9520440117      -12.1805805262      -14.5578347356  SOLV      2618            0.0000000000
      7968      2629  TIP3      H2             21.0533263063      -11.0564016766      -13.5233558949  SOLV      2618            0.0000000000
      7969      2630  TIP3      OH2            25.9887110800       -5.5500709706      -15.9031885827  SOLV      2619            0.0000000000
      7970      2630  TIP3      H1             25.8055847197       -4.7410760759      -15.3932572330  SOLV      2619            0.0000000000
      7971      2630  TIP3      H2             25.7706677856       -6.2663412801      -15.2745215585  SOLV      2619            0.0000000000
      7972      2631  TIP3      OH2            22.0774831619       -6.3535254199      -10.4064630091  SOLV      2620            0.0000000000
      7973      2631  TIP3      H1             21.4382811278       -5.7361424056       -9.9885381902  SOLV      2620            0.0000000000
      7974      2631  TIP3      H2             21.4556073773       -6.8883303900      -10.9464382161  SOLV      2620            0.0000000000
      7975      2632  TIP3      OH2            25.3146186013      -13.0051704642      -23.1443980954  SOLV      2621            0.0000000000
      7976      2632  TIP3      H1             25.9332251695      -12.4146759549      -22.6585563033  SOLV      2621            0.0000000000
      7977      2632  TIP3      H2             25.5570682306      -12.7939079168      -24.0801603904  SOLV      2621            0.0000000000
      7978      2633  TIP3      OH2            19.6428868922      -10.8927119591       -9.2951724901  SOLV      2622            0.0000000000
      7979      2633  TIP3      H1             19.6787615053       -9.9677541134       -8.9753723475  SOLV      2622            0.0000000000
      7980      2633  TIP3      H2             18.6773539453      -11.0508674852       -9.2603294297  SOLV      2622            0.0000000000
      7981      2634  TIP3      OH2            22.8743034569       -6.2799902974      -20.4095527646  SOLV      2623            0.0000000000
      7982      2634  TIP3      H1             23.6899431740       -5.7468416553      -20.3321337632  SOLV      2623            0.0000000000
      7983      2634  TIP3      H2             22.2468638375       -5.6476928244      -20.7825944070  SOLV      2623            0.0000000000
      7984      2635  TIP3      OH2            20.0008526014       -4.7125696863       -9.5786993090  SOLV      2624            0.0000000000
      7985      2635  TIP3      H1             19.6800105742       -4.6620062424      -10.5039033532  SOLV      2624            0.0000000000
      7986      2635  TIP3      H2             19.1786191817       -4.9388680430       -9.0899486742  SOLV      2624            0.0000000000
      7987      2636  TIP3      OH2            18.0115380148      -13.2297643329      -19.2637576462  SOLV      2625            0.0000000000
      7988      2636  TIP3      H1             17.3109440989      -12.7575218867      -19.7612329439  SOLV      2625            0.0000000000
      7989      2636  TIP3      H2             17.5870572368      -14.0755572725      -19.0893370430  SOLV      2625            0.0000000000
      7990      2637  TIP3      OH2            28.4904502088       -6.9699746844      -27.2527933898  SOLV      2626            0.0000000000
      7991      2637  TIP3      H1             28.4352079757       -5.9917921882      -27.3640038996  SOLV      2626            0.0000000000
      7992      2637  TIP3      H2             29.4457411223       -7.0866119532      -27.1947180017  SOLV      2626            0.0000000000
      7993      2638  TIP3      OH2            15.7619947533       -9.3610181310      -10.0867045168  SOLV      2627            0.0000000000
      7994      2638  TIP3      H1             15.1244105291       -9.5282034750      -10.8112165535  SOLV      2627            0.0000000000
      7995      2638  TIP3      H2             16.1633923960      -10.2393735703       -9.9420032488  SOLV      2627            0.0000000000
      7996      2639  TIP3      OH2            14.4366259498       -7.6470581779      -13.5743953385  SOLV      2628            0.0000000000
      7997      2639  TIP3      H1             15.3428753157       -7.5828744613      -13.9096341565  SOLV      2628            0.0000000000
      7998      2639  TIP3      H2             14.2573733891       -6.7296242638      -13.3237517024  SOLV      2628            0.0000000000
      7999      2640  TIP3      OH2            32.7547331908       -3.0363419001      -13.2451119833  SOLV      2629            0.0000000000
      8000      2640  TIP3      H1             32.8765834035       -3.9380355147      -12.8961276316  SOLV      2629            0.0000000000
      8001      2640  TIP3      H2             31.9380352792       -2.7619108820      -12.7751644007  SOLV      2629            0.0000000000
      8002      2641  TIP3      OH2            24.0503641782       -5.1028936781      -11.8287299345  SOLV      2630            0.0000000000
      8003      2641  TIP3      H1             23.9846664594       -4.1706372225      -11.5280297379  SOLV      2630            0.0000000000
      8004      2641  TIP3      H2             23.3127340304       -5.5098549984      -11.3209485311  SOLV      2630            0.0000000000
      8005      2642  TIP3      OH2            21.6789715530       -3.8212643832      -22.3604626280  SOLV      2631            0.0000000000
      8006      2642  TIP3      H1             21.1705210256       -3.9184630227      -23.1826554492  SOLV      2631            0.0000000000
      8007      2642  TIP3      H2             21.3700785815       -2.9570566719      -22.0260276663  SOLV      2631            0.0000000000
      8008      2643  TIP3      OH2            23.6265952883       -4.7789120159      -25.9530291413  SOLV      2632            0.0000000000
      8009      2643  TIP3      H1             24.2325461648       -5.4713625759      -26.2956225363  SOLV      2632            0.0000000000
      8010      2643  TIP3      H2             23.9833297141       -4.6397391177      -25.0484533498  SOLV      2632            0.0000000000
      8011      2644  TIP3      OH2            24.1915088843       -4.2866653249      -23.2871365651  SOLV      2633            0.0000000000
      8012      2644  TIP3      H1             23.3107342911       -4.1519368778      -22.8702889205  SOLV      2633            0.0000000000
      8013      2644  TIP3      H2             24.7046466123       -4.6046292344      -22.5264538404  SOLV      2633            0.0000000000
      8014      2645  TIP3      OH2            31.8699675299      -11.7526418950      -10.5452933833  SOLV      2634            0.0000000000
      8015      2645  TIP3      H1             31.0812866369      -11.6574657981      -11.0984722830  SOLV      2634            0.0000000000
      8016      2645  TIP3      H2             32.1329204166      -12.6709976751      -10.7361811526  SOLV      2634            0.0000000000
      8017      2646  TIP3      OH2            17.8342781741       -7.5458276388      -10.2266988185  SOLV      2635            0.0000000000
      8018      2646  TIP3      H1             18.3105676050       -7.7568475520       -9.4025679622  SOLV      2635            0.0000000000
      8019      2646  TIP3      H2             17.0623356144       -8.1456155932      -10.1863126296  SOLV      2635            0.0000000000
      8020      2647  TIP3      OH2            21.8156673257      -19.3381636306      -12.3362633889  SOLV      2636            0.0000000000
      8021      2647  TIP3      H1             20.9285487248      -19.6129590454      -12.6480116119  SOLV      2636            0.0000000000
      8022      2647  TIP3      H2             21.5723970027      -18.5095647964      -11.8779536417  SOLV      2636            0.0000000000
      8023      2648  TIP3      OH2            27.1697629171      -18.1934987791      -10.4550926125  SOLV      2637            0.0000000000
      8024      2648  TIP3      H1             27.8638882352      -18.3931252463       -9.7905949187  SOLV      2637            0.0000000000
      8025      2648  TIP3      H2             26.3450753619      -18.3431759702       -9.9530399944  SOLV      2637            0.0000000000
      8026      2649  TIP3      OH2            29.5485111372      -13.9118512663      -11.2565135273  SOLV      2638            0.0000000000
      8027      2649  TIP3      H1             29.0319795438      -13.8952082767      -10.4207779860  SOLV      2638            0.0000000000
      8028      2649  TIP3      H2             29.3669403309      -13.0284800730      -11.6307967869  SOLV      2638            0.0000000000
      8029      2650  TIP3      OH2            25.9615106504      -12.5682269428      -25.7257187127  SOLV      2639            0.0000000000
      8030      2650  TIP3      H1             25.7327816766      -12.9333218460      -26.5993027618  SOLV      2639            0.0000000000
      8031      2650  TIP3      H2             26.8582818688      -12.2278900220      -25.9124531497  SOLV      2639            0.0000000000
      8032      2651  TIP3      OH2            23.2276165118      -18.8239686042      -22.6515926793  SOLV      2640            0.0000000000
      8033      2651  TIP3      H1             22.8919318656      -18.8766955736      -21.7356600783  SOLV      2640            0.0000000000
      8034      2651  TIP3      H2             22.8463077100      -19.6466700932      -23.0155222136  SOLV      2640            0.0000000000
      8035      2652  TIP3      OH2            21.1185627283      -14.1262086496      -12.2158038426  SOLV      2641            0.0000000000
      8036      2652  TIP3      H1             20.6379477994      -13.9108453858      -11.3904070893  SOLV      2641            0.0000000000
      8037      2652  TIP3      H2             20.9606262829      -13.3110167153      -12.7423201617  SOLV      2641            0.0000000000
      8038      2653  TIP3      OH2            19.9929110255      -15.3042553534      -17.0492420658  SOLV      2642            0.0000000000
      8039      2653  TIP3      H1             19.0589717116      -15.5327040652      -16.8623711029  SOLV      2642            0.0000000000
      8040      2653  TIP3      H2             20.0966281288      -15.7130190906      -17.9378302128  SOLV      2642            0.0000000000
      8041      2654  TIP3      OH2            24.8629988339      -14.4829207000      -19.7822398188  SOLV      2643            0.0000000000
      8042      2654  TIP3      H1             24.3862674044      -13.7512885714      -20.2313067686  SOLV      2643            0.0000000000
      8043      2654  TIP3      H2             25.4547311288      -14.8005503381      -20.4937415889  SOLV      2643            0.0000000000
      8044      2655  TIP3      OH2            26.6444352434      -11.6916591825       -8.9311596988  SOLV      2644            0.0000000000
      8045      2655  TIP3      H1             26.4602815400      -12.4225211499       -8.3034178413  SOLV      2644            0.0000000000
      8046      2655  TIP3      H2             27.5918797610      -11.5427117453       -8.7634314775  SOLV      2644            0.0000000000
      8047      2656  TIP3      OH2            26.3277294842      -14.2095243271      -17.3779527362  SOLV      2645            0.0000000000
      8048      2656  TIP3      H1             25.7415321942      -13.9301831861      -18.1105924321  SOLV      2645            0.0000000000
      8049      2656  TIP3      H2             26.7319345539      -14.9850720679      -17.8221758096  SOLV      2645            0.0000000000
      8050      2657  TIP3      OH2            19.3554270035      -13.8627815560      -10.1058930825  SOLV      2646            0.0000000000
      8051      2657  TIP3      H1             19.6568116465      -13.1879810936       -9.4772845814  SOLV      2646            0.0000000000
      8052      2657  TIP3      H2             19.2691171251      -14.6560509976       -9.5452882782  SOLV      2646            0.0000000000
      8053      2658  TIP3      OH2            19.8012504325      -19.0896777808      -22.9930918998  SOLV      2647            0.0000000000
      8054      2658  TIP3      H1             19.7030378766      -19.0737411061      -22.0212863879  SOLV      2647            0.0000000000
      8055      2658  TIP3      H2             19.0562178119      -18.5172728452      -23.2612211642  SOLV      2647            0.0000000000
      8056      2659  TIP3      OH2            15.2809102099      -18.7291005164      -14.2477135836  SOLV      2648            0.0000000000
      8057      2659  TIP3      H1             15.9922261401      -18.3350456448      -13.7026820837  SOLV      2648            0.0000000000
      8058      2659  TIP3      H2             15.7133867948      -18.8795029772      -15.0986231394  SOLV      2648            0.0000000000
      8059      2660  TIP3      OH2            14.8668527328      -18.8698925441      -19.1080832221  SOLV      2649            0.0000000000
      8060      2660  TIP3      H1             15.3334116400      -18.5135601845      -19.8953738469  SOLV      2649            0.0000000000
      8061      2660  TIP3      H2             14.2824333861      -18.1116104248      -18.9201263120  SOLV      2649            0.0000000000
      8062      2661  TIP3      OH2            26.4644359792      -11.7410831249      -13.1913865360  SOLV      2650            0.0000000000
      8063      2661  TIP3      H1             26.8179643508      -12.4487072520      -13.7809661971  SOLV      2650            0.0000000000
      8064      2661  TIP3      H2             26.1823233713      -12.2866095938      -12.4274208347  SOLV      2650            0.0000000000
      8065      2662  TIP3      OH2            23.2974443912      -17.1658260503      -16.4756454180  SOLV      2651            0.0000000000
      8066      2662  TIP3      H1             22.5107467808      -17.1093982989      -15.8993138416  SOLV      2651            0.0000000000
      8067      2662  TIP3      H2             24.0259021491      -17.1327297477      -15.8304914275  SOLV      2651            0.0000000000
      8068      2663  TIP3      OH2            17.5874128398      -16.4977373100      -16.3705856127  SOLV      2652            0.0000000000
      8069      2663  TIP3      H1             16.6497794563      -16.4268720649      -16.6715616858  SOLV      2652            0.0000000000
      8070      2663  TIP3      H2             17.8333216441      -17.4061918478      -16.6238899867  SOLV      2652            0.0000000000
      8071      2664  TIP3      OH2            20.2223816706      -16.5940761536      -19.4541526962  SOLV      2653            0.0000000000
      8072      2664  TIP3      H1             21.1631781936      -16.4130958093      -19.6488011085  SOLV      2653            0.0000000000
      8073      2664  TIP3      H2             19.7687900433      -16.3603790540      -20.2976693833  SOLV      2653            0.0000000000
      8074      2665  TIP3      OH2            28.1512308830      -16.2788504030      -14.2629741872  SOLV      2654            0.0000000000
      8075      2665  TIP3      H1             27.7122672860      -16.1342735391      -13.3977441558  SOLV      2654            0.0000000000
      8076      2665  TIP3      H2             27.5031844161      -16.8224064270      -14.7342243647  SOLV      2654            0.0000000000
      8077      2666  TIP3      OH2            18.7740124361      -16.2514962893      -21.7324423972  SOLV      2655            0.0000000000
      8078      2666  TIP3      H1             18.0631648277      -16.6625092377      -22.2550539419  SOLV      2655            0.0000000000
      8079      2666  TIP3      H2             19.3003106210      -15.8286007167      -22.4445351391  SOLV      2655            0.0000000000
      8080      2667  TIP3      OH2            29.9039310068        0.5814097459      -12.2218555165  SOLV      2656            0.0000000000
      8081      2667  TIP3      H1             29.8673534966        0.8146047972      -13.1689137018  SOLV      2656            0.0000000000
      8082      2667  TIP3      H2             30.7127460109        1.0547579759      -11.9390709569  SOLV      2656            0.0000000000
      8083      2668  TIP3      OH2            19.4501376423       -8.3739818454       -8.0091738992  SOLV      2657            0.0000000000
      8084      2668  TIP3      H1             20.2485886957       -8.0424064006       -7.5541172960  SOLV      2657            0.0000000000
      8085      2668  TIP3      H2             18.7983899626       -8.3280529716       -7.2838666244  SOLV      2657            0.0000000000
      8086      2669  TIP3      OH2            24.0699282789      -13.8275749678      -15.5267229568  SOLV      2658            0.0000000000
      8087      2669  TIP3      H1             24.8601811385      -14.0854295125      -16.0330125678  SOLV      2658            0.0000000000
      8088      2669  TIP3      H2             24.2266267797      -14.2507765816      -14.6667003875  SOLV      2658            0.0000000000
      8089      2670  TIP3      OH2            19.2406308945      -18.9043805122      -16.6459467074  SOLV      2659            0.0000000000
      8090      2670  TIP3      H1             18.8978403395      -19.6859598489      -16.1618820707  SOLV      2659            0.0000000000
      8091      2670  TIP3      H2             19.6900964945      -19.3136560263      -17.3976298487  SOLV      2659            0.0000000000
      8092      2671  TIP3      OH2            23.8262418084      -14.8383894419      -12.4819436667  SOLV      2660            0.0000000000
      8093      2671  TIP3      H1             22.9453162065      -14.4200746104      -12.4248441015  SOLV      2660            0.0000000000
      8094      2671  TIP3      H2             24.4143871288      -14.1840266603      -12.0535905062  SOLV      2660            0.0000000000
      8095      2672  TIP3      OH2            21.2127515076      -10.9339173872      -21.6167764297  SOLV      2661            0.0000000000
      8096      2672  TIP3      H1             20.4698047288      -11.5577649916      -21.7517540839  SOLV      2661            0.0000000000
      8097      2672  TIP3      H2             20.9881408081      -10.5673596404      -20.7255984144  SOLV      2661            0.0000000000
      8098      2673  TIP3      OH2            30.2584315210       -8.5973756159      -15.3950577436  SOLV      2662            0.0000000000
      8099      2673  TIP3      H1             30.5090634477       -8.1237193365      -16.2157947146  SOLV      2662            0.0000000000
      8100      2673  TIP3      H2             29.4134383859       -9.0273973430      -15.6497498724  SOLV      2662            0.0000000000
      8101      2674  TIP3      OH2            25.7854055376      -17.8571565403      -22.9216370087  SOLV      2663            0.0000000000
      8102      2674  TIP3      H1             24.8116714107      -17.9852455192      -22.8568447982  SOLV      2663            0.0000000000
      8103      2674  TIP3      H2             25.9051228623      -16.9066794568      -22.7151983100  SOLV      2663            0.0000000000
      8104      2675  TIP3      OH2            25.1215909023       -7.7575647582      -11.6300276436  SOLV      2664            0.0000000000
      8105      2675  TIP3      H1             25.5635771032       -7.8351322174      -10.7758835291  SOLV      2664            0.0000000000
      8106      2675  TIP3      H2             24.7954303048       -6.8400745517      -11.6237957573  SOLV      2664            0.0000000000
      8107      2676  TIP3      OH2            26.4838568409      -15.3148153123      -21.9628916797  SOLV      2665            0.0000000000
      8108      2676  TIP3      H1             27.4473467908      -15.2437761136      -21.8118254871  SOLV      2665            0.0000000000
      8109      2676  TIP3      H2             26.3034242651      -14.5251711198      -22.5079133101  SOLV      2665            0.0000000000
      8110      2677  TIP3      OH2            18.0352774879      -10.9034398487      -14.9201174781  SOLV      2666            0.0000000000
      8111      2677  TIP3      H1             18.4503283376      -11.0277936162      -15.7991920561  SOLV      2666            0.0000000000
      8112      2677  TIP3      H2             18.7048430858      -11.2978287214      -14.3392604647  SOLV      2666            0.0000000000
      8113      2678  TIP3      OH2            22.6204249661       -9.4375232048      -23.4384227318  SOLV      2667            0.0000000000
      8114      2678  TIP3      H1             22.1390788459       -8.5768222833      -23.4041348302  SOLV      2667            0.0000000000
      8115      2678  TIP3      H2             22.1055514187       -9.9656340580      -22.7906370397  SOLV      2667            0.0000000000
      8116      2679  TIP3      OH2            16.9717411219      -11.5208837609       -8.7232792674  SOLV      2668            0.0000000000
      8117      2679  TIP3      H1             17.1143396988      -11.6647225260       -7.7685987881  SOLV      2668            0.0000000000
      8118      2679  TIP3      H2             16.2506323418      -12.1439857090       -8.9145220973  SOLV      2668            0.0000000000
      8119      2680  TIP3      OH2            24.2446251869      -10.3371883567       -8.5249547572  SOLV      2669            0.0000000000
      8120      2680  TIP3      H1             23.6397953162      -10.8852165920       -9.0475147159  SOLV      2669            0.0000000000
      8121      2680  TIP3      H2             25.1123593411      -10.6946017009       -8.8143249671  SOLV      2669            0.0000000000
      8122      2681  TIP3      OH2            26.7736774054       -5.1605467990      -12.6183375260  SOLV      2670            0.0000000000
      8123      2681  TIP3      H1             25.8061190289       -5.1454067728      -12.5054963862  SOLV      2670            0.0000000000
      8124      2681  TIP3      H2             27.0517781543       -4.5977897898      -11.8677670146  SOLV      2670            0.0000000000
      8125      2682  TIP3      OH2            32.9718659959       -5.9508809154      -12.7249890113  SOLV      2671            0.0000000000
      8126      2682  TIP3      H1             31.9947508837       -5.9103668393      -12.7948549269  SOLV      2671            0.0000000000
      8127      2682  TIP3      H2             33.1757189626       -6.3219020883      -13.6168934751  SOLV      2671            0.0000000000
      8128      2683  TIP3      OH2            27.8703816227       -6.1852045990      -24.5032230773  SOLV      2672            0.0000000000
      8129      2683  TIP3      H1             27.6349119200       -6.7925322896      -23.7870571848  SOLV      2672            0.0000000000
      8130      2683  TIP3      H2             27.9843230617       -6.7685073949      -25.2675039886  SOLV      2672            0.0000000000
      8131      2684  TIP3      OH2            27.8168324062       -9.8595874747      -16.1964447462  SOLV      2673            0.0000000000
      8132      2684  TIP3      H1             26.8826500529      -10.0956798690      -16.0377548638  SOLV      2673            0.0000000000
      8133      2684  TIP3      H2             28.1087086331      -10.6532034188      -16.6917723354  SOLV      2673            0.0000000000
      8134      2685  TIP3      OH2            19.0440629165       -7.5996297858      -18.5508330551  SOLV      2674            0.0000000000
      8135      2685  TIP3      H1             19.0655274979       -6.8830899445      -19.2122787895  SOLV      2674            0.0000000000
      8136      2685  TIP3      H2             18.2057323564       -7.3802719494      -18.1076057975  SOLV      2674            0.0000000000
      8137      2686  TIP3      OH2            14.8092755558      -14.6192647415      -21.5526352325  SOLV      2675            0.0000000000
      8138      2686  TIP3      H1             15.2507984660      -13.7683054710      -21.3414916132  SOLV      2675            0.0000000000
      8139      2686  TIP3      H2             14.0436648560      -14.5833863916      -20.9378659501  SOLV      2675            0.0000000000
      8140      2687  TIP3      OH2            20.3585562304       -9.9865844059      -19.2376335709  SOLV      2676            0.0000000000
      8141      2687  TIP3      H1             19.9872930340       -9.1053106609      -19.0265344563  SOLV      2676            0.0000000000
      8142      2687  TIP3      H2             20.0851070525      -10.4925540749      -18.4510968086  SOLV      2676            0.0000000000
      8143      2688  TIP3      OH2            21.8882050314       -4.2308875347      -13.8269572556  SOLV      2677            0.0000000000
      8144      2688  TIP3      H1             22.2425018345       -3.5408889092      -14.4245959603  SOLV      2677            0.0000000000
      8145      2688  TIP3      H2             22.7022065656       -4.5809641555      -13.4353342460  SOLV      2677            0.0000000000
      8146      2689  TIP3      OH2            18.3217985856       -5.2634238321      -20.1175030764  SOLV      2678            0.0000000000
      8147      2689  TIP3      H1             17.6656560397       -5.3058150525      -19.3844395544  SOLV      2678            0.0000000000
      8148      2689  TIP3      H2             18.5466464190       -4.3100664816      -20.0894696086  SOLV      2678            0.0000000000
      8149      2690  TIP3      OH2            25.6817806650       -7.8713080192      -14.3127054302  SOLV      2679            0.0000000000
      8150      2690  TIP3      H1             25.5654477945       -7.9202951368      -13.3379542899  SOLV      2679            0.0000000000
      8151      2690  TIP3      H2             26.4933849869       -8.3823416435      -14.4365759679  SOLV      2679            0.0000000000
      8152      2691  TIP3      OH2            25.4707521030       -8.8787576087      -25.4898685774  SOLV      2680            0.0000000000
      8153      2691  TIP3      H1             26.0010082118       -9.1423188289      -24.6994691823  SOLV      2680            0.0000000000
      8154      2691  TIP3      H2             24.5995552350       -9.2001968336      -25.2127626785  SOLV      2680            0.0000000000
      8155      2692  TIP3      OH2            28.1878353628       -2.5621750384      -13.8685706699  SOLV      2681            0.0000000000
      8156      2692  TIP3      H1             27.3632667768       -3.0801789466      -13.9579513887  SOLV      2681            0.0000000000
      8157      2692  TIP3      H2             28.0630676575       -1.9036255602      -14.5885072179  SOLV      2681            0.0000000000
      8158      2693  TIP3      OH2            28.6288161591       -4.2548992126      -27.4284076592  SOLV      2682            0.0000000000
      8159      2693  TIP3      H1             29.0855389650       -3.5141461036      -27.8660502689  SOLV      2682            0.0000000000
      8160      2693  TIP3      H2             27.8628030684       -3.7601402518      -27.0618543182  SOLV      2682            0.0000000000
      8161      2694  TIP3      OH2            19.0178282766      -16.4484241989       -8.6749525121  SOLV      2683            0.0000000000
      8162      2694  TIP3      H1             18.0480544762      -16.4346856716       -8.5747379763  SOLV      2683            0.0000000000
      8163      2694  TIP3      H2             19.2889086663      -17.0130042024       -7.9346494878  SOLV      2683            0.0000000000
      8164      2695  TIP3      OH2            26.9149515590       -9.6235593053      -23.3301909856  SOLV      2684            0.0000000000
      8165      2695  TIP3      H1             26.8898775675      -10.2901673812      -22.6137006612  SOLV      2684            0.0000000000
      8166      2695  TIP3      H2             27.8766545012       -9.6360888011      -23.5345392095  SOLV      2684            0.0000000000
      8167      2696  TIP3      OH2            16.2296030811       -5.5569353928      -12.4131640406  SOLV      2685            0.0000000000
      8168      2696  TIP3      H1             16.7581730221       -6.3463512413      -12.2197806938  SOLV      2685            0.0000000000
      8169      2696  TIP3      H2             16.6537797495       -4.8929827232      -11.8556936819  SOLV      2685            0.0000000000
      8170      2697  TIP3      OH2            19.1035568395       -9.1474066505      -25.5068676605  SOLV      2686            0.0000000000
      8171      2697  TIP3      H1             19.2576704295      -10.0852648749      -25.7231562351  SOLV      2686            0.0000000000
      8172      2697  TIP3      H2             18.9130268020       -9.2033149522      -24.5480805337  SOLV      2686            0.0000000000
      8173      2698  TIP3      OH2            18.5551927063       -9.0888729810      -22.8057826492  SOLV      2687            0.0000000000
      8174      2698  TIP3      H1             19.2567288916       -9.3335588443      -22.1870267293  SOLV      2687            0.0000000000
      8175      2698  TIP3      H2             18.5524726417       -8.1083247881      -22.7170848594  SOLV      2687            0.0000000000
      8176      2699  TIP3      OH2            15.8678038950      -12.1806384839      -20.7268685201  SOLV      2688            0.0000000000
      8177      2699  TIP3      H1             15.1963863785      -11.7183439252      -20.1843041264  SOLV      2688            0.0000000000
      8178      2699  TIP3      H2             16.0035008922      -11.5137044047      -21.4301531782  SOLV      2688            0.0000000000
      8179      2700  TIP3      OH2            27.3720374954      -15.7118985909      -11.6943514420  SOLV      2689            0.0000000000
      8180      2700  TIP3      H1             28.2613406030      -15.3714643141      -11.4838957915  SOLV      2689            0.0000000000
      8181      2700  TIP3      H2             27.3414611264      -16.5586245809      -11.2024099666  SOLV      2689            0.0000000000
      8182      2701  TIP3      OH2            26.2273509414      -18.3678677337      -20.1276045881  SOLV      2690            0.0000000000
      8183      2701  TIP3      H1             26.1275273138      -18.1301432813      -21.0698502819  SOLV      2690            0.0000000000
      8184      2701  TIP3      H2             26.6391209959      -17.5498048977      -19.7662424589  SOLV      2690            0.0000000000
      8185      2702  TIP3      OH2            21.2227010665       -7.1277331318      -23.3388316633  SOLV      2691            0.0000000000
      8186      2702  TIP3      H1             20.3473083548       -6.9244721075      -22.9560267702  SOLV      2691            0.0000000000
      8187      2702  TIP3      H2             21.4139624211       -6.2826308516      -23.7748241484  SOLV      2691            0.0000000000
      8188      2703  TIP3      OH2            23.0433083168      -16.4621528442      -19.1508273364  SOLV      2692            0.0000000000
      8189      2703  TIP3      H1             23.6923010137      -15.7475561994      -19.3398677357  SOLV      2692            0.0000000000
      8190      2703  TIP3      H2             23.1478060820      -16.5598218553      -18.1803275269  SOLV      2692            0.0000000000
      8191      2704  TIP3      OH2            25.7997500735      -13.3496743590      -11.0962495911  SOLV      2693            0.0000000000
      8192      2704  TIP3      H1             26.1084943006      -12.8499855610      -10.3138642248  SOLV      2693            0.0000000000
      8193      2704  TIP3      H2             26.3561629163      -14.1540084579      -11.0690809794  SOLV      2693            0.0000000000
      8194      2705  TIP3      OH2            24.5202768037      -19.3072199545      -18.1664073661  SOLV      2694            0.0000000000
      8195      2705  TIP3      H1             24.4316247139      -18.5294229766      -17.5823330684  SOLV      2694            0.0000000000
      8196      2705  TIP3      H2             25.1354882853      -18.9469283881      -18.8500039822  SOLV      2694            0.0000000000
      8197      2706  TIP3      OH2            18.6731438539       -6.3818687289      -22.6082666290  SOLV      2695            0.0000000000
      8198      2706  TIP3      H1             18.3710083649       -5.6604524718      -23.2021619880  SOLV      2695            0.0000000000
      8199      2706  TIP3      H2             18.5116729633       -5.9762304209      -21.7243502189  SOLV      2695            0.0000000000
      8200      2707  TIP3      OH2            19.6747833696      -19.2138010626      -20.2305068066  SOLV      2696            0.0000000000
      8201      2707  TIP3      H1             19.6502698261      -18.3023385405      -19.8726274217  SOLV      2696            0.0000000000
      8202      2707  TIP3      H2             20.6394410609      -19.3796143293      -20.1625802922  SOLV      2696            0.0000000000
      8203      2708  TIP3      OH2            32.2474402519      -14.4821811898      -11.4913321026  SOLV      2697            0.0000000000
      8204      2708  TIP3      H1             31.2806457162      -14.5194091664      -11.3422550596  SOLV      2697            0.0000000000
      8205      2708  TIP3      H2             32.2694999069      -14.1864689151      -12.4132973823  SOLV      2697            0.0000000000
      8206      2709  TIP3      OH2            28.4865949774      -12.2328800795      -17.5004218989  SOLV      2698            0.0000000000
      8207      2709  TIP3      H1             27.8220866013      -12.9124510655      -17.3001618176  SOLV      2698            0.0000000000
      8208      2709  TIP3      H2             29.2410451423      -12.5033461818      -16.9206226983  SOLV      2698            0.0000000000
      8209      2710  TIP3      OH2            15.8311073269      -10.1461944201      -22.6902052251  SOLV      2699            0.0000000000
      8210      2710  TIP3      H1             16.4504894308       -9.4091197033      -22.5470289079  SOLV      2699            0.0000000000
      8211      2710  TIP3      H2             16.3445688858      -10.6603177775      -23.3518519258  SOLV      2699            0.0000000000
      8212      2711  TIP3      OH2            15.2264386062      -17.3292154099      -21.3378969725  SOLV      2700            0.0000000000
      8213      2711  TIP3      H1             15.3117235575      -16.3549660375      -21.3506430502  SOLV      2700            0.0000000000
      8214      2711  TIP3      H2             14.4357922785      -17.4562950989      -21.8732525125  SOLV      2700            0.0000000000
      8215      2712  TIP3      OH2            28.3449972765       -2.6540759776      -18.0697142684  SOLV      2701            0.0000000000
      8216      2712  TIP3      H1             28.0022300827       -2.3492504456      -18.9269159866  SOLV      2701            0.0000000000
      8217      2712  TIP3      H2             29.3088965636       -2.5314536400      -18.2044557734  SOLV      2701            0.0000000000
      8218      2713  TIP3      OH2            19.1549989092      -20.1137405909      -12.6583819004  SOLV      2702            0.0000000000
      8219      2713  TIP3      H1             18.8682570393      -20.4481526936      -13.5349236440  SOLV      2702            0.0000000000
      8220      2713  TIP3      H2             19.0468014107      -20.9022401665      -12.0914722247  SOLV      2702            0.0000000000
      8221      2714  TIP3      OH2            16.1085561982       -2.4751914621       -7.9462287385  SOLV      2703            0.0000000000
      8222      2714  TIP3      H1             17.0247689377       -2.5183459659       -7.5967216496  SOLV      2703            0.0000000000
      8223      2714  TIP3      H2             15.9204946181       -3.4161950893       -8.1008542724  SOLV      2703            0.0000000000
      8224      2715  TIP3      OH2            20.9003955904       -2.9735650374       -7.6447769974  SOLV      2704            0.0000000000
      8225      2715  TIP3      H1             21.8605200418       -3.0830854782       -7.6556209273  SOLV      2704            0.0000000000
      8226      2715  TIP3      H2             20.6375641752       -3.5743909970       -8.3751529556  SOLV      2704            0.0000000000
      8227      2716  TIP3      OH2            20.7107067199       -7.1396904649      -26.4578969713  SOLV      2705            0.0000000000
      8228      2716  TIP3      H1             20.1421251542       -7.8292748336      -26.0416265491  SOLV      2705            0.0000000000
      8229      2716  TIP3      H2             21.5030661367       -7.6652414027      -26.6530340323  SOLV      2705            0.0000000000
      8230      2717  TIP3      OH2            27.2574283583       -3.7557265699      -10.2725708202  SOLV      2706            0.0000000000
      8231      2717  TIP3      H1             27.2313329529       -4.4724644971       -9.5963393206  SOLV      2706            0.0000000000
      8232      2717  TIP3      H2             28.0556987556       -3.2570465338      -10.0146865093  SOLV      2706            0.0000000000
      8233      2718  TIP3      OH2            25.0822320523       -6.7573532126      -27.2210000198  SOLV      2707            0.0000000000
      8234      2718  TIP3      H1             25.4158521132       -7.4153063322      -26.5753326331  SOLV      2707            0.0000000000
      8235      2718  TIP3      H2             25.7307346209       -6.8214798096      -27.9447360873  SOLV      2707            0.0000000000
      8236      2719  TIP3      OH2            17.4197073823       -8.4335323703       -6.0943381186  SOLV      2708            0.0000000000
      8237      2719  TIP3      H1             17.5488248740       -9.3979238991       -6.0414920329  SOLV      2708            0.0000000000
      8238      2719  TIP3      H2             16.5582537678       -8.3795592250       -6.5658985038  SOLV      2708            0.0000000000
      8239      2720  TIP3      OH2            17.2378350257      -11.9922771967      -24.1349095343  SOLV      2709            0.0000000000
      8240      2720  TIP3      H1             17.8176955826      -12.2437713470      -23.3915148585  SOLV      2709            0.0000000000
      8241      2720  TIP3      H2             17.9048147735      -11.9311507578      -24.8550517320  SOLV      2709            0.0000000000
      8242      2721  TIP3      OH2            23.4607172714       -7.5572403834       -8.3533256671  SOLV      2710            0.0000000000
      8243      2721  TIP3      H1             23.0795082158       -7.3104816332       -9.2233045767  SOLV      2710            0.0000000000
      8244      2721  TIP3      H2             23.7856611565       -8.4672232888       -8.5122667072  SOLV      2710            0.0000000000
      8245      2722  TIP3      OH2            22.3628465312       -9.9435185050      -26.1136091729  SOLV      2711            0.0000000000
      8246      2722  TIP3      H1             22.3831948118       -9.8274713376      -25.1402941459  SOLV      2711            0.0000000000
      8247      2722  TIP3      H2             22.3656347676      -10.9239848573      -26.1731795489  SOLV      2711            0.0000000000
      8248      2723  TIP3      OH2            28.3649221652       -7.4373029225      -12.2669054419  SOLV      2712            0.0000000000
      8249      2723  TIP3      H1             29.1500334007       -7.0855439926      -12.7343397511  SOLV      2712            0.0000000000
      8250      2723  TIP3      H2             27.7210904795       -6.7243290427      -12.4578999884  SOLV      2712            0.0000000000
      8251      2724  TIP3      OH2            18.6220595089      -11.1110800386       -6.2240153404  SOLV      2713            0.0000000000
      8252      2724  TIP3      H1             19.4430835976      -11.3835314377       -6.6553660729  SOLV      2713            0.0000000000
      8253      2724  TIP3      H2             18.9479663732      -10.7533813761       -5.3719007286  SOLV      2713            0.0000000000
      8254      2725  TIP3      OH2            19.2048033976      -12.8585086174      -22.0118865988  SOLV      2714            0.0000000000
      8255      2725  TIP3      H1             18.9805138622      -13.2271373309      -21.1408473450  SOLV      2714            0.0000000000
      8256      2725  TIP3      H2             19.6285527265      -13.6181822485      -22.4619149332  SOLV      2714            0.0000000000
      8257      2726  TIP3      OH2            21.9789538010      -12.2923971272       -9.6772815608  SOLV      2715            0.0000000000
      8258      2726  TIP3      H1             21.2077967555      -11.6849190412       -9.6670789971  SOLV      2715            0.0000000000
      8259      2726  TIP3      H2             22.5079911054      -11.9229126166      -10.4246806515  SOLV      2715            0.0000000000
      8260      2727  TIP3      OH2            20.3304965785      -14.9330733338      -23.5540199130  SOLV      2716            0.0000000000
      8261      2727  TIP3      H1             20.0908933818      -14.8171083921      -24.4973664303  SOLV      2716            0.0000000000
      8262      2727  TIP3      H2             21.3090782110      -14.9347455239      -23.6199348256  SOLV      2716            0.0000000000
      8263      2728  TIP3      OH2            27.1563962287       -8.2356534225       -8.3539907236  SOLV      2717            0.0000000000
      8264      2728  TIP3      H1             27.9078124490       -8.5369733819       -8.8839106165  SOLV      2717            0.0000000000
      8265      2728  TIP3      H2             27.1205872337       -8.9091522315       -7.6524941762  SOLV      2717            0.0000000000
      8266      2729  TIP3      OH2            28.2272537804      -11.6312704616      -26.9976973934  SOLV      2718            0.0000000000
      8267      2729  TIP3      H1             28.0396143310      -12.1380969528      -27.8120578176  SOLV      2718            0.0000000000
      8268      2729  TIP3      H2             27.8513999603      -10.7548232003      -27.2464553370  SOLV      2718            0.0000000000
      8269      2730  TIP3      OH2            23.2094163334      -14.3523047207       -8.4246538884  SOLV      2719            0.0000000000
      8270      2730  TIP3      H1             23.2329702790      -15.1233550738       -9.0269413697  SOLV      2719            0.0000000000
      8271      2730  TIP3      H2             22.7873272717      -13.6684530966       -8.9944714670  SOLV      2719            0.0000000000
      8272      2731  TIP3      OH2            23.2369375649      -16.5060249624      -10.2928484813  SOLV      2720            0.0000000000
      8273      2731  TIP3      H1             23.5404109971      -16.0521730986      -11.1081121654  SOLV      2720            0.0000000000
      8274      2731  TIP3      H2             22.3039190324      -16.7063981236      -10.5168396550  SOLV      2720            0.0000000000
      8275      2732  TIP3      OH2            23.4579143311      -11.1429920825      -11.5734993522  SOLV      2721            0.0000000000
      8276      2732  TIP3      H1             24.3278474093      -10.9798964774      -11.9626184373  SOLV      2721            0.0000000000
      8277      2732  TIP3      H2             22.8968290071      -10.4999883220      -12.0607721910  SOLV      2721            0.0000000000
      8278      2733  TIP3      OH2            29.3898719826      -11.4701441120       -7.7951521292  SOLV      2722            0.0000000000
      8279      2733  TIP3      H1             29.8528083302      -12.3194440272       -7.8270499414  SOLV      2722            0.0000000000
      8280      2733  TIP3      H2             30.0937376748      -10.8636464301       -8.0778458442  SOLV      2722            0.0000000000
      8281      2734  TIP3      OH2            29.5869490414       -8.9366652168      -10.3929909216  SOLV      2723            0.0000000000
      8282      2734  TIP3      H1             29.0503798322       -8.3822288911      -11.0090396066  SOLV      2723            0.0000000000
      8283      2734  TIP3      H2             30.4838744263       -8.7792775863      -10.7662834692  SOLV      2723            0.0000000000
      8284      2735  TIP3      OH2            22.0148915449      -13.3158795797       -6.0485080609  SOLV      2724            0.0000000000
      8285      2735  TIP3      H1             21.3260983087      -13.9992404315       -5.9286112796  SOLV      2724            0.0000000000
      8286      2735  TIP3      H2             22.3224644806      -13.5097520781       -6.9569636769  SOLV      2724            0.0000000000
      8287      2736  TIP3      OH2            24.5457582751      -18.8786786223       -9.5950295387  SOLV      2725            0.0000000000
      8288      2736  TIP3      H1             24.0553899479      -18.0657518857       -9.8480432648  SOLV      2725            0.0000000000
      8289      2736  TIP3      H2             23.8690222294      -19.5694634931       -9.7376904075  SOLV      2725            0.0000000000
      8290      2737  TIP3      OH2            25.8173041707      -13.8859357184       -7.4865673642  SOLV      2726            0.0000000000
      8291      2737  TIP3      H1             25.6397399067      -14.0188353458       -6.5385662545  SOLV      2726            0.0000000000
      8292      2737  TIP3      H2             24.9303193300      -14.0912883418       -7.8514564123  SOLV      2726            0.0000000000
      8293      2738  TIP3      OH2            28.2008815962      -14.2752348634       -8.9321453340  SOLV      2727            0.0000000000
      8294      2738  TIP3      H1             27.4578848526      -14.3007077462       -8.2982674725  SOLV      2727            0.0000000000
      8295      2738  TIP3      H2             28.9559081097      -14.5785988622       -8.3843746628  SOLV      2727            0.0000000000
      8296      2739  TIP3      OH2            30.4390035111      -14.9023037099       -7.4534719523  SOLV      2728            0.0000000000
      8297      2739  TIP3      H1             30.6758543555      -15.8409776285       -7.3121523711  SOLV      2728            0.0000000000
      8298      2739  TIP3      H2             30.5031218809      -14.5287662931       -6.5500471620  SOLV      2728            0.0000000000
      8299      2740  TIP3      OH2            20.3511818138      -15.5049443206       -5.5169049222  SOLV      2729            0.0000000000
      8300      2740  TIP3      H1             20.4182043234      -16.4113249152       -5.8725293318  SOLV      2729            0.0000000000
      8301      2740  TIP3      H2             20.7422703327      -15.6200739134       -4.6298424986  SOLV      2729            0.0000000000
      8302      2741  TIP3      OH2            25.4231959367      -18.8080258507       -7.0020614760  SOLV      2730            0.0000000000
      8303      2741  TIP3      H1             26.0781244137      -19.5313277465       -7.0747132941  SOLV      2730            0.0000000000
      8304      2741  TIP3      H2             25.0672694878      -18.8099142799       -7.9156932195  SOLV      2730            0.0000000000
      8305      2742  TIP3      OH2            26.1374148037      -16.6566268322       -5.4372642038  SOLV      2731            0.0000000000
      8306      2742  TIP3      H1             25.9407225143      -17.3537677493       -6.1001852865  SOLV      2731            0.0000000000
      8307      2742  TIP3      H2             25.3679816644      -16.0561710313       -5.5356262641  SOLV      2731            0.0000000000
      8308      2743  TIP3      OH2            18.3778418539       -4.3509800157      -24.5171230218  SOLV      2732            0.0000000000
      8309      2743  TIP3      H1             19.3353884724       -4.4640060352      -24.6715679157  SOLV      2732            0.0000000000
      8310      2743  TIP3      H2             18.1517989436       -3.7947114506      -25.2857645563  SOLV      2732            0.0000000000
      8311      2744  TIP3      OH2            13.1504712650      -10.5434887050      -22.3655031510  SOLV      2733            0.0000000000
      8312      2744  TIP3      H1             14.0947445710      -10.3002781580      -22.5004834536  SOLV      2733            0.0000000000
      8313      2744  TIP3      H2             13.1196873563      -11.4271622529      -22.7884370387  SOLV      2733            0.0000000000
      8314      2745  TIP3      OH2            12.2644086845       -4.4014813200      -18.2048490534  SOLV      2734            0.0000000000
      8315      2745  TIP3      H1             11.6403201689       -5.0659347479      -18.5606669013  SOLV      2734            0.0000000000
      8316      2745  TIP3      H2             12.6526009894       -4.8976813517      -17.4456072992  SOLV      2734            0.0000000000
      8317      2746  TIP3      OH2            13.3471788778       -5.6907481224      -16.1258606787  SOLV      2735            0.0000000000
      8318      2746  TIP3      H1             13.6955226063       -6.5809369542      -16.2480618796  SOLV      2735            0.0000000000
      8319      2746  TIP3      H2             14.1689590349       -5.2080081099      -15.9160295929  SOLV      2735            0.0000000000
      8320      2747  TIP3      OH2            30.9818050082       -2.0375796807      -18.3456032026  SOLV      2736            0.0000000000
      8321      2747  TIP3      H1             31.2982425474       -1.6364840031      -17.5142991020  SOLV      2736            0.0000000000
      8322      2747  TIP3      H2             30.9148623071       -1.2672652109      -18.9334170469  SOLV      2736            0.0000000000
      8323      2748  TIP3      OH2            31.1550955329       -1.6807143193      -15.4711991899  SOLV      2737            0.0000000000
      8324      2748  TIP3      H1             30.7366837329       -2.5670083379      -15.5122548695  SOLV      2737            0.0000000000
      8325      2748  TIP3      H2             31.9557130430       -1.9073019221      -14.9736793012  SOLV      2737            0.0000000000
      8326      2749  TIP3      OH2            31.7079267888       -4.8894282188       -9.7153905114  SOLV      2738            0.0000000000
      8327      2749  TIP3      H1             30.9912266942       -4.7749782300       -9.0604747739  SOLV      2738            0.0000000000
      8328      2749  TIP3      H2             32.1609144257       -4.0244497121       -9.6806465296  SOLV      2738            0.0000000000
      8329      2750  TIP3      OH2            29.5745586448       -9.7074597681      -23.7190348166  SOLV      2739            0.0000000000
      8330      2750  TIP3      H1             30.0987595883       -8.8914013201      -23.8882768932  SOLV      2739            0.0000000000
      8331      2750  TIP3      H2             30.0123898952      -10.0271857398      -22.8981893901  SOLV      2739            0.0000000000
      8332      2751  TIP3      OH2            30.6556890223      -10.7667318610      -21.4488061740  SOLV      2740            0.0000000000
      8333      2751  TIP3      H1             30.0596098141      -11.4734678523      -21.1129793208  SOLV      2740            0.0000000000
      8334      2751  TIP3      H2             30.8006156717      -10.2546027042      -20.6437162625  SOLV      2740            0.0000000000
      8335      2752  TIP3      OH2            31.6935848859       -7.1691842173      -17.2987916033  SOLV      2741            0.0000000000
      8336      2752  TIP3      H1             32.3635985041       -7.6418191441      -17.8444685423  SOLV      2741            0.0000000000
      8337      2752  TIP3      H2             31.5467717249       -6.3658476580      -17.8269874972  SOLV      2741            0.0000000000
      8338      2753  TIP3      OH2            29.9513264899       -4.1870542947      -15.3110758715  SOLV      2742            0.0000000000
      8339      2753  TIP3      H1             29.2430727229       -3.7671391944      -14.7858118369  SOLV      2742            0.0000000000
      8340      2753  TIP3      H2             29.4450661391       -4.6389644234      -16.0212863290  SOLV      2742            0.0000000000
      8341      2754  TIP3      OH2            30.3229530002      -11.8588682250      -25.3372911374  SOLV      2743            0.0000000000
      8342      2754  TIP3      H1             29.4877056475      -11.9761830940      -25.8356727347  SOLV      2743            0.0000000000
      8343      2754  TIP3      H2             30.0320709121      -11.2078930100      -24.6680192857  SOLV      2743            0.0000000000
      8344      2755  TIP3      OH2            28.1605265709      -15.1601877897      -25.6448054769  SOLV      2744            0.0000000000
      8345      2755  TIP3      H1             29.0766854694      -14.8511242759      -25.5609790591  SOLV      2744            0.0000000000
      8346      2755  TIP3      H2             28.3078331857      -16.1260019900      -25.5777561102  SOLV      2744            0.0000000000
      8347      2756  TIP3      OH2            29.1503774403      -12.6075002141      -20.1451949073  SOLV      2745            0.0000000000
      8348      2756  TIP3      H1             29.2804451306      -13.5684855711      -20.2521141066  SOLV      2745            0.0000000000
      8349      2756  TIP3      H2             28.9951139491      -12.5128410620      -19.1775174122  SOLV      2745            0.0000000000
      8350      2757  TIP3      OH2            15.5232219631      -11.9022499849      -12.5592041410  SOLV      2746            0.0000000000
      8351      2757  TIP3      H1             15.4998094641      -12.1709946856      -13.4992397446  SOLV      2746            0.0000000000
      8352      2757  TIP3      H2             16.4977367838      -11.8314340557      -12.4160096209  SOLV      2746            0.0000000000
      8353      2758  TIP3      OH2            32.0786018472       -8.3528930951      -11.4623505363  SOLV      2747            0.0000000000
      8354      2758  TIP3      H1             32.8348205747       -8.9623524702      -11.5808995639  SOLV      2747            0.0000000000
      8355      2758  TIP3      H2             32.3492320881       -7.5877725398      -12.0026365393  SOLV      2747            0.0000000000
      8356      2759  TIP3      OH2            34.0901558201      -10.2197114745      -10.9702316563  SOLV      2748            0.0000000000
      8357      2759  TIP3      H1             33.2839147703      -10.7656110510      -10.8245010721  SOLV      2748            0.0000000000
      8358      2759  TIP3      H2             34.5955514497      -10.4586474241      -10.1599241374  SOLV      2748            0.0000000000
      8359      2760  TIP3      OH2            28.5614047964      -17.8615553459      -25.5022509497  SOLV      2749            0.0000000000
      8360      2760  TIP3      H1             29.4250308592      -18.2267090201      -25.2639676843  SOLV      2749            0.0000000000
      8361      2760  TIP3      H2             27.9679535109      -18.6226255574      -25.4367391250  SOLV      2749            0.0000000000
      8362      2761  TIP3      OH2            29.2492937036      -15.3357619264      -21.1246098585  SOLV      2750            0.0000000000
      8363      2761  TIP3      H1             29.5176666780      -16.2438355485      -20.8456360691  SOLV      2750            0.0000000000
      8364      2761  TIP3      H2             29.8900070900      -15.1897073749      -21.8452833130  SOLV      2750            0.0000000000
      8365      2762  TIP3      OH2            30.5888512128      -13.0416447012      -16.0465960104  SOLV      2751            0.0000000000
      8366      2762  TIP3      H1             31.1180855242      -13.7747164794      -16.4253432477  SOLV      2751            0.0000000000
      8367      2762  TIP3      H2             31.0666780704      -12.8386467223      -15.2220601426  SOLV      2751            0.0000000000
      8368      2763  TIP3      OH2            31.6241582256      -12.2223209770      -13.5732643238  SOLV      2752            0.0000000000
      8369      2763  TIP3      H1             30.8001892638      -11.8157500452      -13.2490801764  SOLV      2752            0.0000000000
      8370      2763  TIP3      H2             32.0691810229      -11.4522118949      -13.9906322326  SOLV      2752            0.0000000000
      8371      2764  TIP3      OH2            17.6753336891      -15.0266232106       -5.9086994204  SOLV      2753            0.0000000000
      8372      2764  TIP3      H1             18.6546832437      -15.0405858311       -5.8513519258  SOLV      2753            0.0000000000
      8373      2764  TIP3      H2             17.4636625284      -15.8802064418       -5.4839140469  SOLV      2753            0.0000000000
      8374      2765  TIP3      OH2            29.7390315600      -17.8684115275      -20.2997109028  SOLV      2754            0.0000000000
      8375      2765  TIP3      H1             30.4593382815      -18.1657170356      -19.7284056649  SOLV      2754            0.0000000000
      8376      2765  TIP3      H2             29.2444349066      -18.7068745666      -20.4246338978  SOLV      2754            0.0000000000
      8377      2766  TIP3      OH2            17.3184149846      -18.0142477886      -12.5055722623  SOLV      2755            0.0000000000
      8378      2766  TIP3      H1             17.9442490640      -18.7644485838      -12.4639064340  SOLV      2755            0.0000000000
      8379      2766  TIP3      H2             17.9355670928      -17.2707205716      -12.6340462191  SOLV      2755            0.0000000000
      8380      2767  TIP3      OH2            15.3267557888      -15.3120049965      -11.8314600461  SOLV      2756            0.0000000000
      8381      2767  TIP3      H1             15.8331492106      -15.3223950297      -12.6694477489  SOLV      2756            0.0000000000
      8382      2767  TIP3      H2             15.5385193230      -14.4315260204      -11.4976571070  SOLV      2756            0.0000000000
      8383      2768  TIP3      OH2            15.1957840230      -20.3349274885      -16.8663141853  SOLV      2757            0.0000000000
      8384      2768  TIP3      H1             14.2815990835      -20.3397376314      -16.5388052611  SOLV      2757            0.0000000000
      8385      2768  TIP3      H2             15.1365251082      -19.7047309060      -17.6164992156  SOLV      2757            0.0000000000
      8386      2769  TIP3      OH2            26.8587572489       -3.1979712135      -21.6324140816  SOLV      2758            0.0000000000
      8387      2769  TIP3      H1             27.3381419737       -3.2884684960      -22.4809916910  SOLV      2758            0.0000000000
      8388      2769  TIP3      H2             27.1454415053       -2.2809265395      -21.4089230937  SOLV      2758            0.0000000000
      8389      2770  TIP3      OH2            17.3914509382      -19.4912542476       -8.6805441307  SOLV      2759            0.0000000000
      8390      2770  TIP3      H1             16.8645434704      -19.4832404048       -7.8669354288  SOLV      2759            0.0000000000
      8391      2770  TIP3      H2             16.7620001717      -19.0885223248       -9.3121240255  SOLV      2759            0.0000000000
      8392      2771  TIP3      OH2            17.8107984473       -5.1378531016       -7.9175271044  SOLV      2760            0.0000000000
      8393      2771  TIP3      H1             16.8863044059       -5.3812815998       -8.1201993152  SOLV      2760            0.0000000000
      8394      2771  TIP3      H2             17.8696696499       -5.3467606294       -6.9796722120  SOLV      2760            0.0000000000
      8395      2772  TIP3      OH2            19.5943845930       -4.7491926881      -12.3785462139  SOLV      2761            0.0000000000
      8396      2772  TIP3      H1             19.1403654132       -3.9960918261      -12.8133664212  SOLV      2761            0.0000000000
      8397      2772  TIP3      H2             20.4662745508       -4.6491301800      -12.8151140288  SOLV      2761            0.0000000000
      8398      2773  TIP3      OH2            23.9825411863       -2.4241423164      -11.0458439681  SOLV      2762            0.0000000000
      8399      2773  TIP3      H1             24.4151541521       -2.4025273096      -10.1674002841  SOLV      2762            0.0000000000
      8400      2773  TIP3      H2             24.6212893005       -1.9002819714      -11.5766825784  SOLV      2762            0.0000000000
      8401      2774  TIP3      OH2            25.7676466775       -0.8676233016      -12.4226373593  SOLV      2763            0.0000000000
      8402      2774  TIP3      H1             26.4502181339       -1.3438800902      -12.9160390445  SOLV      2763            0.0000000000
      8403      2774  TIP3      H2             26.3194608370       -0.3066139591      -11.8346246174  SOLV      2763            0.0000000000
      8404      2775  TIP3      OH2            16.3813463154       -2.2445704555      -12.1558005304  SOLV      2764            0.0000000000
      8405      2775  TIP3      H1             15.4657212275       -2.0005064668      -12.4174688036  SOLV      2764            0.0000000000
      8406      2775  TIP3      H2             16.4959086290       -1.6705390662      -11.3855042093  SOLV      2764            0.0000000000
      8407      2776  TIP3      OH2            18.7225686411       -2.4629319160      -13.5935848588  SOLV      2765            0.0000000000
      8408      2776  TIP3      H1             17.8342978839       -2.3671431704      -13.1817240226  SOLV      2765            0.0000000000
      8409      2776  TIP3      H2             18.5379826189       -2.1992721410      -14.5178122352  SOLV      2765            0.0000000000
      8410      2777  TIP3      OH2            22.9539403781       -2.2730566003      -15.6012931365  SOLV      2766            0.0000000000
      8411      2777  TIP3      H1             22.2613423523       -2.1592019594      -16.2782559706  SOLV      2766            0.0000000000
      8412      2777  TIP3      H2             23.0288339271       -1.3672149578      -15.2411428963  SOLV      2766            0.0000000000
      8413      2778  TIP3      OH2            25.6554771780       -2.8579197638      -15.0703263077  SOLV      2767            0.0000000000
      8414      2778  TIP3      H1             24.7171945334       -2.6747543838      -15.2824290758  SOLV      2767            0.0000000000
      8415      2778  TIP3      H2             26.1057773702       -2.1571861799      -15.5716850075  SOLV      2767            0.0000000000
      8416      2779  TIP3      OH2            27.6663238554       -0.9454017321      -15.9996987213  SOLV      2768            0.0000000000
      8417      2779  TIP3      H1             27.5083582228       -0.0842732204      -16.4460165193  SOLV      2768            0.0000000000
      8418      2779  TIP3      H2             27.9213258600       -1.5093247212      -16.7636535238  SOLV      2768            0.0000000000
      8419      2780  TIP3      OH2            15.4976732217       -4.4102532857      -14.8461679906  SOLV      2769            0.0000000000
      8420      2780  TIP3      H1             15.8989233653       -4.7632582031      -14.0231462834  SOLV      2769            0.0000000000
      8421      2780  TIP3      H2             16.0461430813       -4.8444795100      -15.5420187087  SOLV      2769            0.0000000000
      8422      2781  TIP3      OH2            20.3350445855       -4.4020274173      -16.2574282091  SOLV      2770            0.0000000000
      8423      2781  TIP3      H1             19.9894190774       -5.2720646744      -16.4982669407  SOLV      2770            0.0000000000
      8424      2781  TIP3      H2             20.6086603802       -4.5413312256      -15.3352412191  SOLV      2770            0.0000000000
      8425      2782  TIP3      OH2            25.7722822097      -18.1265788490      -15.2654091521  SOLV      2771            0.0000000000
      8426      2782  TIP3      H1             25.3649221506      -18.8558535909      -14.7695901692  SOLV      2771            0.0000000000
      8427      2782  TIP3      H2             26.5663600882      -18.5500452578      -15.6513613891  SOLV      2771            0.0000000000
      8428      2783  TIP3      OH2            30.6581026698      -18.4291950130      -16.2785478929  SOLV      2772            0.0000000000
      8429      2783  TIP3      H1             31.1495113754      -19.0388456948      -16.8511461897  SOLV      2772            0.0000000000
      8430      2783  TIP3      H2             29.7835985587      -18.8563078142      -16.2203908100  SOLV      2772            0.0000000000
      8431      2784  TIP3      OH2            18.2859311428      -21.0593754726      -15.1337207681  SOLV      2773            0.0000000000
      8432      2784  TIP3      H1             17.3558450924      -21.3684055355      -15.0869423136  SOLV      2773            0.0000000000
      8433      2784  TIP3      H2             18.7545946942      -21.9195131111      -15.1822853774  SOLV      2773            0.0000000000
      8434      2785  TIP3      OH2            16.2105607825      -22.3370863301      -18.6130781908  SOLV      2774            0.0000000000
      8435      2785  TIP3      H1             16.4893669718      -21.7719751455      -19.3561573700  SOLV      2774            0.0000000000
      8436      2785  TIP3      H2             15.9213231693      -21.6702103336      -17.9554653396  SOLV      2774            0.0000000000
      8437      2786  TIP3      OH2            22.7898216595      -20.7642162187      -16.2790398624  SOLV      2775            0.0000000000
      8438      2786  TIP3      H1             23.2772984832      -20.2661982116      -16.9557503981  SOLV      2775            0.0000000000
      8439      2786  TIP3      H2             23.0768376340      -20.3193585815      -15.4667909686  SOLV      2775            0.0000000000
      8440      2787  TIP3      OH2            27.9766968481      -19.3847548935      -16.4499281331  SOLV      2776            0.0000000000
      8441      2787  TIP3      H1             27.8059724232      -19.6372290936      -17.3648262902  SOLV      2776            0.0000000000
      8442      2787  TIP3      H2             27.8787311962      -20.2392091243      -15.9698029292  SOLV      2776            0.0000000000
      8443      2788  TIP3      OH2            28.4189038285      -20.2214064488      -20.5539500353  SOLV      2777            0.0000000000
      8444      2788  TIP3      H1             27.5582812216      -19.7926982757      -20.7039670474  SOLV      2777            0.0000000000
      8445      2788  TIP3      H2             28.1564168899      -21.1298085028      -20.3129008989  SOLV      2777            0.0000000000
      8446      2789  TIP3      OH2            13.3864108441       -6.9940539434      -21.1085652234  SOLV      2778            0.0000000000
      8447      2789  TIP3      H1             12.4395898943       -6.9188929640      -21.3249340522  SOLV      2778            0.0000000000
      8448      2789  TIP3      H2             13.5407690915       -6.2197859456      -20.5562900379  SOLV      2778            0.0000000000
      8449      2790  TIP3      OH2            17.3781374696      -20.8051828040      -20.9967225497  SOLV      2779            0.0000000000
      8450      2790  TIP3      H1             17.8532720331      -21.4092585252      -21.6009772135  SOLV      2779            0.0000000000
      8451      2790  TIP3      H2             18.1107659342      -20.2489474744      -20.6620524643  SOLV      2779            0.0000000000
      8452      2791  TIP3      OH2            22.4417623320      -18.9790059367      -20.0040428428  SOLV      2780            0.0000000000
      8453      2791  TIP3      H1             23.0801405360      -19.4094403312      -19.4098167995  SOLV      2780            0.0000000000
      8454      2791  TIP3      H2             22.6304549391      -18.0395707205      -19.7789658618  SOLV      2780            0.0000000000
      8455      2792  TIP3      OH2            21.0346271089       -4.8019265097      -25.0269278182  SOLV      2781            0.0000000000
      8456      2792  TIP3      H1             21.9269364528       -4.5761694397      -25.3635465587  SOLV      2781            0.0000000000
      8457      2792  TIP3      H2             20.8301119522       -5.5576364857      -25.6223771336  SOLV      2781            0.0000000000
      8458      2793  TIP3      OH2            28.1574015166       -3.4975175749      -24.0504520476  SOLV      2782            0.0000000000
      8459      2793  TIP3      H1             28.1047250695       -4.4767185322      -24.1346120142  SOLV      2782            0.0000000000
      8460      2793  TIP3      H2             27.7064706740       -3.2154562007      -24.8667533209  SOLV      2782            0.0000000000
      8461      2794  TIP3      OH2            20.3528470339      -18.2769634462       -6.2126683744  SOLV      2783            0.0000000000
      8462      2794  TIP3      H1             19.9952605607      -18.9733169157       -5.6353332851  SOLV      2783            0.0000000000
      8463      2794  TIP3      H2             21.2940590201      -18.2739595227       -5.9301413010  SOLV      2783            0.0000000000
      8464      2795  TIP3      OH2            22.8677422482      -18.2611589793       -5.0281940274  SOLV      2784            0.0000000000
      8465      2795  TIP3      H1             23.7157488530      -18.4359347954       -5.4741766000  SOLV      2784            0.0000000000
      8466      2795  TIP3      H2             22.8218899276      -19.0039177621       -4.3963402485  SOLV      2784            0.0000000000
      8467      2796  TIP3      OH2            14.0612271626       -6.4183939708      -24.4466691087  SOLV      2785            0.0000000000
      8468      2796  TIP3      H1             14.0548682834       -6.3650129574      -23.4772841186  SOLV      2785            0.0000000000
      8469      2796  TIP3      H2             14.9435198432       -6.8235393443      -24.6218292785  SOLV      2785            0.0000000000
      8470      2797  TIP3      OH2            31.2540921598      -17.6323366954       -7.1093943104  SOLV      2786            0.0000000000
      8471      2797  TIP3      H1             31.3336214797      -17.9170842954       -6.1786853839  SOLV      2786            0.0000000000
      8472      2797  TIP3      H2             32.0615539502      -18.0252417105       -7.4914040520  SOLV      2786            0.0000000000
      8473      2798  TIP3      OH2            30.3737154273       -2.1334933487      -12.1495000992  SOLV      2787            0.0000000000
      8474      2798  TIP3      H1             29.6284924996       -2.3996903618      -12.7289236369  SOLV      2787            0.0000000000
      8475      2798  TIP3      H2             30.2480783200       -1.1624984373      -12.1375353794  SOLV      2787            0.0000000000
      8476      2799  TIP3      OH2            31.3604859758       -7.7612503455      -24.1726813557  SOLV      2788            0.0000000000
      8477      2799  TIP3      H1             31.6428228766       -7.7184084777      -25.1114028811  SOLV      2788            0.0000000000
      8478      2799  TIP3      H2             31.6442816830       -6.8774068659      -23.8627286970  SOLV      2788            0.0000000000
      8479      2800  TIP3      OH2            33.5541261169       -6.8514395862      -15.1878519636  SOLV      2789            0.0000000000
      8480      2800  TIP3      H1             32.8250607896       -6.8764921977      -15.8368555889  SOLV      2789            0.0000000000
      8481      2800  TIP3      H2             34.2760990619       -7.2831165013      -15.6953581435  SOLV      2789            0.0000000000
      8482      2801  TIP3      OH2            32.1919759377       -4.5461545519      -18.7079368369  SOLV      2790            0.0000000000
      8483      2801  TIP3      H1             32.8961458958       -4.0922774242      -18.1915993572  SOLV      2790            0.0000000000
      8484      2801  TIP3      H2             31.5027342971       -3.8570756694      -18.6367997087  SOLV      2790            0.0000000000
      8485      2802  TIP3      OH2           -37.0098270310       11.1505279819       -3.2348314355  SOLV      2791            0.0000000000
      8486      2802  TIP3      H1            -36.2232287976       10.8303187367       -2.7644198176  SOLV      2791            0.0000000000
      8487      2802  TIP3      H2            -37.0353670199       12.0867470676       -2.9419483436  SOLV      2791            0.0000000000
      8488      2803  TIP3      OH2            32.2717692511       -5.2256113616      -23.8418874405  SOLV      2792            0.0000000000
      8489      2803  TIP3      H1             31.4972549037       -4.7574741951      -24.2316294137  SOLV      2792            0.0000000000
      8490      2803  TIP3      H2             32.9227999094       -4.5036811554      -23.8666774701  SOLV      2792            0.0000000000
      8491      2804  TIP3      OH2            34.0802914230        0.3059591984      -13.1698964796  SOLV      2793            0.0000000000
      8492      2804  TIP3      H1             35.0126444858        0.4171374385      -12.8697646029  SOLV      2793            0.0000000000
      8493      2804  TIP3      H2             34.1073459830       -0.6408213573      -13.3859463930  SOLV      2793            0.0000000000
      8494      2805  TIP3      OH2            30.6133605204       -1.9318706804      -23.6243140314  SOLV      2794            0.0000000000
      8495      2805  TIP3      H1             29.7212375956       -2.2926196658      -23.7954892127  SOLV      2794            0.0000000000
      8496      2805  TIP3      H2             30.8011254924       -2.3521890957      -22.7568588851  SOLV      2794            0.0000000000
      8497      2806  TIP3      OH2            31.5801480560       -3.2011363420      -21.3708430586  SOLV      2795            0.0000000000
      8498      2806  TIP3      H1             31.3184777874       -3.8353174109      -20.6959567696  SOLV      2795            0.0000000000
      8499      2806  TIP3      H2             32.3805717297       -2.8068852250      -20.9654065248  SOLV      2795            0.0000000000
      8500      2807  TIP3      OH2            35.1441432533       -2.3055619592      -14.3085465954  SOLV      2796            0.0000000000
      8501      2807  TIP3      H1             34.2265875943       -2.5406354286      -14.0611863749  SOLV      2796            0.0000000000
      8502      2807  TIP3      H2             35.5945660832       -3.0923225603      -13.9506955336  SOLV      2796            0.0000000000
      8503      2808  TIP3      OH2            33.9076988643       -0.2868091433      -17.1037564726  SOLV      2797            0.0000000000
      8504      2808  TIP3      H1             33.1399035411        0.1442337752      -17.5350272910  SOLV      2797            0.0000000000
      8505      2808  TIP3      H2             34.0977148023        0.4003233221      -16.4477997731  SOLV      2797            0.0000000000
      8506      2809  TIP3      OH2            33.7014045548       -1.9859004107      -20.0871557119  SOLV      2798            0.0000000000
      8507      2809  TIP3      H1             33.7714345313       -2.0899674880      -19.1215644696  SOLV      2798            0.0000000000
      8508      2809  TIP3      H2             34.5503649974       -2.3682837574      -20.3729616149  SOLV      2798            0.0000000000
      8509      2810  TIP3      OH2            30.7993441434       -3.8954150026      -25.7565747967  SOLV      2799            0.0000000000
      8510      2810  TIP3      H1             29.9696548849       -4.2124060173      -26.1512273031  SOLV      2799            0.0000000000
      8511      2810  TIP3      H2             30.7564283328       -2.9669621062      -26.0557882086  SOLV      2799            0.0000000000
      8512      2811  TIP3      OH2           -32.7078337211       -0.7480150632       -7.1472098563  SOLV      2800            0.0000000000
      8513      2811  TIP3      H1            -32.2571593604        0.0205216257       -7.5174978242  SOLV      2800            0.0000000000
      8514      2811  TIP3      H2            -33.1505470374       -1.1275352705       -7.9276961609  SOLV      2800            0.0000000000
      8515      2812  TIP3      OH2           -32.5474195427       -0.3674216493       -3.7349138647  SOLV      2801            0.0000000000
      8516      2812  TIP3      H1            -32.0366878353       -0.8209206068       -3.0434500269  SOLV      2801            0.0000000000
      8517      2812  TIP3      H2            -32.6456580189       -1.0437789543       -4.4225779672  SOLV      2801            0.0000000000
      8518      2813  TIP3      OH2           -33.3028373162        7.1010498850       -6.8398442207  SOLV      2802            0.0000000000
      8519      2813  TIP3      H1            -32.9232480064        6.3900140010       -7.3927543904  SOLV      2802            0.0000000000
      8520      2813  TIP3      H2            -33.3600241763        6.6672821758       -5.9788539878  SOLV      2802            0.0000000000
      8521      2814  TIP3      OH2           -34.3338244806        1.7387055387       -3.3078801579  SOLV      2803            0.0000000000
      8522      2814  TIP3      H1            -33.8885160011        0.9201694307       -3.6183496849  SOLV      2803            0.0000000000
      8523      2814  TIP3      H2            -33.5256838807        2.2552758398       -3.1087141862  SOLV      2803            0.0000000000
      8524      2815  TIP3      OH2           -24.1406355824       -5.0791825860       -3.3461725275  SOLV      2804            0.0000000000
      8525      2815  TIP3      H1            -23.8487063241       -4.2359107128       -2.9446797971  SOLV      2804            0.0000000000
      8526      2815  TIP3      H2            -24.0005377648       -4.8949873780       -4.2908203355  SOLV      2804            0.0000000000
      8527      2816  TIP3      OH2           -30.3934094625       -3.3325196460       -2.9810307399  SOLV      2805            0.0000000000
      8528      2816  TIP3      H1            -29.8753615580       -4.1459275092       -2.8529034101  SOLV      2805            0.0000000000
      8529      2816  TIP3      H2            -30.4373794899       -3.2925230347       -3.9569605308  SOLV      2805            0.0000000000
      8530      2817  TIP3      OH2           -36.7730946973       -6.6637916890       -3.3877650795  SOLV      2806            0.0000000000
      8531      2817  TIP3      H1            -36.9373858334       -5.9170195148       -4.0057794247  SOLV      2806            0.0000000000
      8532      2817  TIP3      H2            -37.2780696695       -7.3673261544       -3.8435815547  SOLV      2806            0.0000000000
      8533      2818  TIP3      OH2           -29.8398141601       -5.7303169809       -7.1947080942  SOLV      2807            0.0000000000
      8534      2818  TIP3      H1            -29.1246369658       -5.8465504143       -6.5280960273  SOLV      2807            0.0000000000
      8535      2818  TIP3      H2            -29.3213554782       -5.3564513427       -7.9369743785  SOLV      2807            0.0000000000
      8536      2819  TIP3      OH2           -36.0475990902       -2.6957842979       -4.2853980778  SOLV      2808            0.0000000000
      8537      2819  TIP3      H1            -35.0998359974       -2.9519078961       -4.2133869726  SOLV      2808            0.0000000000
      8538      2819  TIP3      H2            -36.4388787487       -3.5190026002       -4.6466878855  SOLV      2808            0.0000000000
      8539      2820  TIP3      OH2           -23.4352108892       -2.9662029171       -1.6634393138  SOLV      2809            0.0000000000
      8540      2820  TIP3      H1            -24.2755445053       -2.5102930973       -1.8843068253  SOLV      2809            0.0000000000
      8541      2820  TIP3      H2            -23.2526372575       -2.5992824190       -0.7848978858  SOLV      2809            0.0000000000
      8542      2821  TIP3      OH2           -36.5236567986       -7.1355403991        0.8962411748  SOLV      2810            0.0000000000
      8543      2821  TIP3      H1            -37.1618433987       -6.7206514543        0.2792324649  SOLV      2810            0.0000000000
      8544      2821  TIP3      H2            -36.8996641806       -6.8459071778        1.7602548106  SOLV      2810            0.0000000000
      8545      2822  TIP3      OH2           -33.3605833140        1.8268458036       -9.2982209498  SOLV      2811            0.0000000000
      8546      2822  TIP3      H1            -34.0396105930        1.1441331540       -9.2529597996  SOLV      2811            0.0000000000
      8547      2822  TIP3      H2            -33.7737223465        2.5389030795       -8.7741019798  SOLV      2811            0.0000000000
      8548      2823  TIP3      OH2           -35.8294985618        1.0277597505       -1.1781024669  SOLV      2812            0.0000000000
      8549      2823  TIP3      H1            -36.5565394143        1.6535851457       -1.0832609728  SOLV      2812            0.0000000000
      8550      2823  TIP3      H2            -35.3363197064        1.4072594006       -1.9421350702  SOLV      2812            0.0000000000
      8551      2824  TIP3      OH2           -27.8095293305       -5.7271580606       -5.3602830071  SOLV      2813            0.0000000000
      8552      2824  TIP3      H1            -28.0958087653       -5.9865713904       -4.4730173399  SOLV      2813            0.0000000000
      8553      2824  TIP3      H2            -27.3031851534       -4.9104155686       -5.1698802145  SOLV      2813            0.0000000000
      8554      2825  TIP3      OH2           -37.9736639178       -5.8559892246       -1.0400243123  SOLV      2814            0.0000000000
      8555      2825  TIP3      H1            -37.4715950557       -5.0271483400       -0.8775860940  SOLV      2814            0.0000000000
      8556      2825  TIP3      H2            -37.5145790795       -6.1674866470       -1.8523961575  SOLV      2814            0.0000000000
      8557      2826  TIP3      OH2           -29.1030785474        5.1343941768       -5.1444378777  SOLV      2815            0.0000000000
      8558      2826  TIP3      H1            -30.0116030710        4.8264734428       -4.9507503094  SOLV      2815            0.0000000000
      8559      2826  TIP3      H2            -29.2808347856        5.9030990560       -5.7161280178  SOLV      2815            0.0000000000
      8560      2827  TIP3      OH2           -26.2447089705       -6.1055457563       -1.7369847112  SOLV      2816            0.0000000000
      8561      2827  TIP3      H1            -27.1128548521       -5.8324680727       -2.0796603462  SOLV      2816            0.0000000000
      8562      2827  TIP3      H2            -25.6330590809       -5.7477553339       -2.4145313772  SOLV      2816            0.0000000000
      8563      2828  TIP3      OH2           -33.2710927027       -9.7054160457       -1.9231272246  SOLV      2817            0.0000000000
      8564      2828  TIP3      H1            -33.4492728353      -10.6466232448       -1.7413615966  SOLV      2817            0.0000000000
      8565      2828  TIP3      H2            -34.0569167815       -9.3045704813       -1.4875542547  SOLV      2817            0.0000000000
      8566      2829  TIP3      OH2           -32.2413539776        5.3270663851       -8.7415919596  SOLV      2818            0.0000000000
      8567      2829  TIP3      H1            -31.6822112618        4.5184741129       -8.8296601234  SOLV      2818            0.0000000000
      8568      2829  TIP3      H2            -31.6035233575        5.9903306219       -9.0918098779  SOLV      2818            0.0000000000
      8569      2830  TIP3      OH2           -30.6573050891        3.1630803329       -9.4053357376  SOLV      2819            0.0000000000
      8570      2830  TIP3      H1            -31.3481149862        2.5330521131       -9.6650217675  SOLV      2819            0.0000000000
      8571      2830  TIP3      H2            -29.9630590258        2.5465554083       -9.0938725818  SOLV      2819            0.0000000000
      8572      2831  TIP3      OH2           -26.9030437415        4.0260040015       -1.9165801043  SOLV      2820            0.0000000000
      8573      2831  TIP3      H1            -27.0446449075        3.2687620999       -2.5292388040  SOLV      2820            0.0000000000
      8574      2831  TIP3      H2            -27.0933058664        4.7871436595       -2.5047880498  SOLV      2820            0.0000000000
      8575      2832  TIP3      OH2           -33.9001576399       -1.9627039768       -9.3378621098  SOLV      2821            0.0000000000
      8576      2832  TIP3      H1            -34.7847667647       -1.5881640628       -9.5354828575  SOLV      2821            0.0000000000
      8577      2832  TIP3      H2            -33.4812630524       -2.0103128774      -10.2141526115  SOLV      2821            0.0000000000
      8578      2833  TIP3      OH2           -34.3829243394       -4.0324613170      -12.2192271576  SOLV      2822            0.0000000000
      8579      2833  TIP3      H1            -33.7181368238       -3.5884653710      -11.6734336130  SOLV      2822            0.0000000000
      8580      2833  TIP3      H2            -33.8211610604       -4.6612453569      -12.7163976173  SOLV      2822            0.0000000000
      8581      2834  TIP3      OH2           -24.9671294921        0.4835295500       -3.4293019136  SOLV      2823            0.0000000000
      8582      2834  TIP3      H1            -25.8257343482        0.9652328317       -3.4187843094  SOLV      2823            0.0000000000
      8583      2834  TIP3      H2            -24.6669419307        0.7097159564       -4.3386667139  SOLV      2823            0.0000000000
      8584      2835  TIP3      OH2           -28.1925936509       -0.8097084974       -0.4808936408  SOLV      2824            0.0000000000
      8585      2835  TIP3      H1            -28.2569686619        0.0407267808       -0.0132149144  SOLV      2824            0.0000000000
      8586      2835  TIP3      H2            -29.0417902063       -0.8015848357       -0.9710202497  SOLV      2824            0.0000000000
      8587      2836  TIP3      OH2           -37.9780340069       -1.1364413023       -5.5115172245  SOLV      2825            0.0000000000
      8588      2836  TIP3      H1            -38.3681778181       -1.7850207643       -6.1423860560  SOLV      2825            0.0000000000
      8589      2836  TIP3      H2            -37.2275196305       -1.6550900179       -5.1521760090  SOLV      2825            0.0000000000
      8590      2837  TIP3      OH2           -36.8155792363        3.0253306594       -3.9218222110  SOLV      2826            0.0000000000
      8591      2837  TIP3      H1            -37.1492432979        2.7191536731       -4.7865666948  SOLV      2826            0.0000000000
      8592      2837  TIP3      H2            -35.9618520065        2.5530767204       -3.8505872007  SOLV      2826            0.0000000000
      8593      2838  TIP3      OH2           -36.8133201968       -1.4686502505       -1.9455211860  SOLV      2827            0.0000000000
      8594      2838  TIP3      H1            -36.3849998163       -1.7879148258       -2.7719160286  SOLV      2827            0.0000000000
      8595      2838  TIP3      H2            -36.3195629938       -0.6480893856       -1.7412500911  SOLV      2827            0.0000000000
      8596      2839  TIP3      OH2           -31.6924804600        4.8865285913       -4.2163433388  SOLV      2828            0.0000000000
      8597      2839  TIP3      H1            -31.6545937517        5.6567623866       -3.6244900107  SOLV      2828            0.0000000000
      8598      2839  TIP3      H2            -31.7818323544        4.1342446112       -3.5969960822  SOLV      2828            0.0000000000
      8599      2840  TIP3      OH2           -35.4991328619        4.1446810197        1.0321397360  SOLV      2829            0.0000000000
      8600      2840  TIP3      H1            -36.0173342017        4.1993852128        1.8668205282  SOLV      2829            0.0000000000
      8601      2840  TIP3      H2            -36.1852783004        3.8770856513        0.4066700121  SOLV      2829            0.0000000000
      8602      2841  TIP3      OH2           -31.9580017879       -2.4228350459      -11.3233629963  SOLV      2830            0.0000000000
      8603      2841  TIP3      H1            -31.3980259162       -1.7054431231      -10.9816360880  SOLV      2830            0.0000000000
      8604      2841  TIP3      H2            -31.7797519675       -2.3383527039      -12.2919124565  SOLV      2830            0.0000000000
      8605      2842  TIP3      OH2           -34.7861794655        4.2486053061       -8.8032149912  SOLV      2831            0.0000000000
      8606      2842  TIP3      H1            -33.8924772310        4.6334488965       -8.6937015976  SOLV      2831            0.0000000000
      8607      2842  TIP3      H2            -35.3230779343        5.0385750039       -8.9537028790  SOLV      2831            0.0000000000
      8608      2843  TIP3      OH2           -26.9833324244      -10.2335212519      -10.8763002854  SOLV      2832            0.0000000000
      8609      2843  TIP3      H1            -27.7922430665       -9.9823115988      -10.3825427650  SOLV      2832            0.0000000000
      8610      2843  TIP3      H2            -26.7975293140       -9.3964110602      -11.3538221207  SOLV      2832            0.0000000000
      8611      2844  TIP3      OH2           -38.9485327541       -2.9311684024       -7.2987219367  SOLV      2833            0.0000000000
      8612      2844  TIP3      H1            -38.8143476729       -2.3965284383       -8.1172880306  SOLV      2833            0.0000000000
      8613      2844  TIP3      H2            -39.7938597502       -3.3366992016       -7.5264645280  SOLV      2833            0.0000000000
      8614      2845  TIP3      OH2           -29.0030980509        3.5727862523      -15.5260169617  SOLV      2834            0.0000000000
      8615      2845  TIP3      H1            -29.0618979750        4.3044006515      -16.1731444467  SOLV      2834            0.0000000000
      8616      2845  TIP3      H2            -28.0594871951        3.3094788856      -15.5923420073  SOLV      2834            0.0000000000
      8617      2846  TIP3      OH2           -24.5534390693        7.5653290441       -1.4196457447  SOLV      2835            0.0000000000
      8618      2846  TIP3      H1            -24.5733361740        6.5936302806       -1.3212220930  SOLV      2835            0.0000000000
      8619      2846  TIP3      H2            -25.3988043758        7.8009199009       -0.9770439880  SOLV      2835            0.0000000000
      8620      2847  TIP3      OH2           -33.3748452572        5.2626027836       -0.2430647765  SOLV      2836            0.0000000000
      8621      2847  TIP3      H1            -33.3466546542        6.1755731773        0.1209437160  SOLV      2836            0.0000000000
      8622      2847  TIP3      H2            -34.1687877383        4.9105408971        0.2206955358  SOLV      2836            0.0000000000
      8623      2848  TIP3      OH2           -35.8605658813        6.6383083569      -10.6067447522  SOLV      2837            0.0000000000
      8624      2848  TIP3      H1            -36.3404723705        6.8063702441      -11.4322719588  SOLV      2837            0.0000000000
      8625      2848  TIP3      H2            -35.9279478153        7.5187335467      -10.1696064602  SOLV      2837            0.0000000000
      8626      2849  TIP3      OH2           -33.9410085880        5.6362022080      -14.2201431563  SOLV      2838            0.0000000000
      8627      2849  TIP3      H1            -33.3176326925        4.9653063678      -14.5805637414  SOLV      2838            0.0000000000
      8628      2849  TIP3      H2            -33.5416937894        5.8079737459      -13.3389012313  SOLV      2838            0.0000000000
      8629      2850  TIP3      OH2           -33.3687818832        6.1410112491      -11.5579072280  SOLV      2839            0.0000000000
      8630      2850  TIP3      H1            -34.2231592362        6.2459847085      -11.0846645911  SOLV      2839            0.0000000000
      8631      2850  TIP3      H2            -32.7836212452        5.8496568984      -10.8372015194  SOLV      2839            0.0000000000
      8632      2851  TIP3      OH2           -25.6846831738       -1.1876865174        1.2897626999  SOLV      2840            0.0000000000
      8633      2851  TIP3      H1            -26.5072986558       -1.1073205920        0.7820345412  SOLV      2840            0.0000000000
      8634      2851  TIP3      H2            -25.5139387038       -2.1502065749        1.2207561445  SOLV      2840            0.0000000000
      8635      2852  TIP3      OH2           -35.6545033482       -9.1104636812       -0.7239269477  SOLV      2841            0.0000000000
      8636      2852  TIP3      H1            -36.5680033068       -9.3224041983       -0.9994490030  SOLV      2841            0.0000000000
      8637      2852  TIP3      H2            -35.8386990225       -8.3081235395       -0.1870773840  SOLV      2841            0.0000000000
      8638      2853  TIP3      OH2           -30.3117890843       -7.7449934977        1.3430848529  SOLV      2842            0.0000000000
      8639      2853  TIP3      H1            -29.6187950903       -8.0109461085        1.9816643524  SOLV      2842            0.0000000000
      8640      2853  TIP3      H2            -31.1405033069       -7.9210850021        1.8319926218  SOLV      2842            0.0000000000
      8641      2854  TIP3      OH2           -28.0128236678       -3.4403751029        0.5098652437  SOLV      2843            0.0000000000
      8642      2854  TIP3      H1            -28.5252547963       -3.4428414809        1.3503587006  SOLV      2843            0.0000000000
      8643      2854  TIP3      H2            -28.2313036957       -2.5666885576        0.1320976154  SOLV      2843            0.0000000000
      8644      2855  TIP3      OH2           -31.4134979037       -2.2228168484      -13.9577749800  SOLV      2844            0.0000000000
      8645      2855  TIP3      H1            -31.7143428469       -2.4325483694      -14.8621119266  SOLV      2844            0.0000000000
      8646      2855  TIP3      H2            -30.5666317802       -1.7713568103      -14.1506813152  SOLV      2844            0.0000000000
      8647      2856  TIP3      OH2           -34.2548861497       -8.3759870143      -10.8527496287  SOLV      2845            0.0000000000
      8648      2856  TIP3      H1            -34.5901647797       -8.4235513749       -9.9351162017  SOLV      2845            0.0000000000
      8649      2856  TIP3      H2            -34.6385547273       -9.2013239948      -11.2082081912  SOLV      2845            0.0000000000
      8650      2857  TIP3      OH2           -36.3431835654       -3.6817263058       -0.4446807273  SOLV      2846            0.0000000000
      8651      2857  TIP3      H1            -36.6715416653       -3.3907759502        0.4328256345  SOLV      2846            0.0000000000
      8652      2857  TIP3      H2            -36.5311202360       -2.8800955303       -0.9828321048  SOLV      2846            0.0000000000
      8653      2858  TIP3      OH2           -37.4581407032       -4.8843497276       -5.2808377817  SOLV      2847            0.0000000000
      8654      2858  TIP3      H1            -38.4240031519       -4.9779035310       -5.2008799816  SOLV      2847            0.0000000000
      8655      2858  TIP3      H2            -37.3442018723       -5.1908051282       -6.2074553344  SOLV      2847            0.0000000000
      8656      2859  TIP3      OH2           -32.6778965758       -4.0888221747       -8.0292249972  SOLV      2848            0.0000000000
      8657      2859  TIP3      H1            -33.1076573413       -3.2933871368       -8.4082693386  SOLV      2848            0.0000000000
      8658      2859  TIP3      H2            -32.0958141446       -4.3710158147       -8.7608579557  SOLV      2848            0.0000000000
      8659      2860  TIP3      OH2           -30.8565625192       -1.2502222315        2.8493644153  SOLV      2849            0.0000000000
      8660      2860  TIP3      H1            -31.0838141306       -1.9786892651        3.4680540817  SOLV      2849            0.0000000000
      8661      2860  TIP3      H2            -29.9084606641       -1.1396099133        3.0513891901  SOLV      2849            0.0000000000
      8662      2861  TIP3      OH2           -31.1543056609       -3.7004375257       -5.6376015634  SOLV      2850            0.0000000000
      8663      2861  TIP3      H1            -31.7303854559       -3.3245276728       -6.3290041642  SOLV      2850            0.0000000000
      8664      2861  TIP3      H2            -30.8295151607       -4.4875952443       -6.1176004302  SOLV      2850            0.0000000000
      8665      2862  TIP3      OH2           -37.5811497251       -3.0625791606        1.9156942663  SOLV      2851            0.0000000000
      8666      2862  TIP3      H1            -38.2086910142       -2.4347559751        2.3114194251  SOLV      2851            0.0000000000
      8667      2862  TIP3      H2            -38.0003080680       -3.9160285512        2.1049687173  SOLV      2851            0.0000000000
      8668      2863  TIP3      OH2           -37.7284974959       -8.7107524251      -11.1825235539  SOLV      2852            0.0000000000
      8669      2863  TIP3      H1            -37.8083365632       -8.6177978046      -10.2139918673  SOLV      2852            0.0000000000
      8670      2863  TIP3      H2            -38.3966188372       -8.0604905556      -11.4811065226  SOLV      2852            0.0000000000
      8671      2864  TIP3      OH2           -30.9647524763       -1.2889850913       -1.3641797511  SOLV      2853            0.0000000000
      8672      2864  TIP3      H1            -30.6825848880       -2.0051367284       -1.9804570259  SOLV      2853            0.0000000000
      8673      2864  TIP3      H2            -31.3069545762       -1.8360950232       -0.6269729378  SOLV      2853            0.0000000000
      8674      2865  TIP3      OH2           -34.2120936390       -6.7807439146       -4.6972547972  SOLV      2854            0.0000000000
      8675      2865  TIP3      H1            -35.0035202716       -6.6797787669       -4.1330501199  SOLV      2854            0.0000000000
      8676      2865  TIP3      H2            -33.4952947224       -6.6156777663       -4.0614176155  SOLV      2854            0.0000000000
      8677      2866  TIP3      OH2           -39.9933683326       -6.0702864027       -4.7404278649  SOLV      2855            0.0000000000
      8678      2866  TIP3      H1            -40.7896892542       -6.3706608127       -5.2029930223  SOLV      2855            0.0000000000
      8679      2866  TIP3      H2            -39.4325159321       -6.8733298745       -4.7788322255  SOLV      2855            0.0000000000
      8680      2867  TIP3      OH2           -37.2837069713       -6.1555891279       -7.7134011720  SOLV      2856            0.0000000000
      8681      2867  TIP3      H1            -36.3595777097       -5.9243587144       -7.9252557403  SOLV      2856            0.0000000000
      8682      2867  TIP3      H2            -37.7797427941       -5.8474005083       -8.5093150973  SOLV      2856            0.0000000000
      8683      2868  TIP3      OH2           -29.3016202784       -5.8911537041       -2.6480687253  SOLV      2857            0.0000000000
      8684      2868  TIP3      H1            -29.6222450393       -5.7293789207       -1.7318943350  SOLV      2857            0.0000000000
      8685      2868  TIP3      H2            -30.0282529760       -6.4420788117       -2.9901543738  SOLV      2857            0.0000000000
      8686      2869  TIP3      OH2           -38.7827991599       -5.8104286635       -9.9444958899  SOLV      2858            0.0000000000
      8687      2869  TIP3      H1            -39.3412913318       -6.2414722521      -10.6196378950  SOLV      2858            0.0000000000
      8688      2869  TIP3      H2            -38.1954776317       -5.2895324028      -10.5389660701  SOLV      2858            0.0000000000
      8689      2870  TIP3      OH2           -27.6035515106       11.0240820003       -0.4403709777  SOLV      2859            0.0000000000
      8690      2870  TIP3      H1            -27.6421835647       11.2578773920       -1.3861253360  SOLV      2859            0.0000000000
      8691      2870  TIP3      H2            -26.8026687603       11.5036248744       -0.1526225685  SOLV      2859            0.0000000000
      8692      2871  TIP3      OH2           -33.4693645945       -3.5364154281       -3.7747939235  SOLV      2860            0.0000000000
      8693      2871  TIP3      H1            -32.6246679215       -3.6367208672       -4.2478321189  SOLV      2860            0.0000000000
      8694      2871  TIP3      H2            -33.2495327516       -3.8637970725       -2.8882054418  SOLV      2860            0.0000000000
      8695      2872  TIP3      OH2           -38.3428243547       -8.3842611497       -4.8788272490  SOLV      2861            0.0000000000
      8696      2872  TIP3      H1            -38.6221485489       -9.1979992149       -4.4142564889  SOLV      2861            0.0000000000
      8697      2872  TIP3      H2            -37.8634246797       -8.7365463391       -5.6430660868  SOLV      2861            0.0000000000
      8698      2873  TIP3      OH2           -33.6482046253       -4.3955517525       -0.7515898994  SOLV      2862            0.0000000000
      8699      2873  TIP3      H1            -34.5439892924       -4.0058653357       -0.7185456743  SOLV      2862            0.0000000000
      8700      2873  TIP3      H2            -33.0917394388       -3.7150730042       -0.3237645484  SOLV      2862            0.0000000000
      8701      2874  TIP3      OH2           -36.1927701768       -0.4982532427       -9.8404357284  SOLV      2863            0.0000000000
      8702      2874  TIP3      H1            -37.1093044596       -0.8419111860       -9.9330060992  SOLV      2863            0.0000000000
      8703      2874  TIP3      H2            -36.2865647596       -0.1379819412       -8.9217628894  SOLV      2863            0.0000000000
      8704      2875  TIP3      OH2           -27.3107839364        1.8893669706       -3.5738279003  SOLV      2864            0.0000000000
      8705      2875  TIP3      H1            -27.1661873523        2.3926746509       -4.3995912279  SOLV      2864            0.0000000000
      8706      2875  TIP3      H2            -28.1765893525        1.4512472298       -3.7547851565  SOLV      2864            0.0000000000
      8707      2876  TIP3      OH2           -31.7437360882       -7.3807084292      -11.2228902747  SOLV      2865            0.0000000000
      8708      2876  TIP3      H1            -32.7052966911       -7.5589607849      -11.1012840393  SOLV      2865            0.0000000000
      8709      2876  TIP3      H2            -31.6555583184       -6.4409974261      -10.9553136953  SOLV      2865            0.0000000000
      8710      2877  TIP3      OH2           -32.3623646522        2.6485067658        0.1390070951  SOLV      2866            0.0000000000
      8711      2877  TIP3      H1            -31.9401371032        2.6008564990        1.0049248225  SOLV      2866            0.0000000000
      8712      2877  TIP3      H2            -32.6623332063        3.5745625434        0.0901454204  SOLV      2866            0.0000000000
      8713      2878  TIP3      OH2           -31.1063829472       -4.8784979020      -10.2244769853  SOLV      2867            0.0000000000
      8714      2878  TIP3      H1            -30.1461743813       -4.8986234622      -10.0125657059  SOLV      2867            0.0000000000
      8715      2878  TIP3      H2            -31.2026654639       -4.0019377375      -10.6462430057  SOLV      2867            0.0000000000
      8716      2879  TIP3      OH2           -39.2078491046       -0.7898581165       -3.0815596196  SOLV      2868            0.0000000000
      8717      2879  TIP3      H1            -38.9114942083       -0.7907549122       -4.0190630171  SOLV      2868            0.0000000000
      8718      2879  TIP3      H2            -38.3708311615       -1.0569633419       -2.6434573188  SOLV      2868            0.0000000000
      8719      2880  TIP3      OH2           -35.1911850898        0.8786865796      -11.9055517552  SOLV      2869            0.0000000000
      8720      2880  TIP3      H1            -34.7447524357        1.6121587144      -11.4427029365  SOLV      2869            0.0000000000
      8721      2880  TIP3      H2            -35.3685169913        0.2528923060      -11.1605736782  SOLV      2869            0.0000000000
      8722      2881  TIP3      OH2           -33.1972759952        0.1566835058        3.3126020450  SOLV      2870            0.0000000000
      8723      2881  TIP3      H1            -33.8969226122       -0.4698374497        3.0180581729  SOLV      2870            0.0000000000
      8724      2881  TIP3      H2            -32.3957967778       -0.2731588702        2.9419314558  SOLV      2870            0.0000000000
      8725      2882  TIP3      OH2           -30.6708028810        5.3425595485       -0.8978608224  SOLV      2871            0.0000000000
      8726      2882  TIP3      H1            -31.6425865117        5.2890609163       -0.8259900176  SOLV      2871            0.0000000000
      8727      2882  TIP3      H2            -30.4565330528        5.8861297725       -0.1134449122  SOLV      2871            0.0000000000
      8728      2883  TIP3      OH2           -26.5714873434       -3.9366473035      -11.8911829928  SOLV      2872            0.0000000000
      8729      2883  TIP3      H1            -27.2369568213       -4.3542213615      -12.4844660825  SOLV      2872            0.0000000000
      8730      2883  TIP3      H2            -26.6476898751       -3.0169842316      -12.2280720160  SOLV      2872            0.0000000000
      8731      2884  TIP3      OH2           -24.3989786892        4.6904659462       -1.0601960437  SOLV      2873            0.0000000000
      8732      2884  TIP3      H1            -25.3734513313        4.5862513646       -1.1358979660  SOLV      2873            0.0000000000
      8733      2884  TIP3      H2            -24.1348124113        4.3536722521       -1.9478409520  SOLV      2873            0.0000000000
      8734      2885  TIP3      OH2           -29.6578959648        4.2365141070      -12.7773119532  SOLV      2874            0.0000000000
      8735      2885  TIP3      H1            -29.7848195611        3.4721326336      -12.1993389411  SOLV      2874            0.0000000000
      8736      2885  TIP3      H2            -29.4687748798        3.8405188545      -13.6465601919  SOLV      2874            0.0000000000
      8737      2886  TIP3      OH2           -29.6712601579        0.5658749800       -4.0430581405  SOLV      2875            0.0000000000
      8738      2886  TIP3      H1            -30.6030749664        0.4810558990       -4.2912802029  SOLV      2875            0.0000000000
      8739      2886  TIP3      H2            -29.3087479132       -0.2560160087       -4.4493762151  SOLV      2875            0.0000000000
      8740      2887  TIP3      OH2           -37.8343432312        2.6811609187       -6.5878044590  SOLV      2876            0.0000000000
      8741      2887  TIP3      H1            -37.5803679757        3.4051562713       -7.1745574806  SOLV      2876            0.0000000000
      8742      2887  TIP3      H2            -38.7177836701        2.4642923868       -6.9342077942  SOLV      2876            0.0000000000
      8743      2888  TIP3      OH2           -36.5737548152        0.3923191813       -7.3681309755  SOLV      2877            0.0000000000
      8744      2888  TIP3      H1            -36.8761610421        1.2545002564       -7.0259322913  SOLV      2877            0.0000000000
      8745      2888  TIP3      H2            -37.0671076860       -0.2044652600       -6.7736506099  SOLV      2877            0.0000000000
      8746      2889  TIP3      OH2           -35.4838246342        6.1850881404       -2.2771886899  SOLV      2878            0.0000000000
      8747      2889  TIP3      H1            -34.9568672427        6.8532973885       -2.7688834477  SOLV      2878            0.0000000000
      8748      2889  TIP3      H2            -34.7836286012        5.6632886370       -1.8539728689  SOLV      2878            0.0000000000
      8749      2890  TIP3      OH2           -31.7925759319        2.5923406954       -2.5804551566  SOLV      2879            0.0000000000
      8750      2890  TIP3      H1            -31.8911593023        2.4829018925       -1.6108852711  SOLV      2879            0.0000000000
      8751      2890  TIP3      H2            -31.0613835051        1.9838025817       -2.7726022084  SOLV      2879            0.0000000000
      8752      2891  TIP3      OH2           -32.1896557928        1.4469991942      -13.7465462055  SOLV      2880            0.0000000000
      8753      2891  TIP3      H1            -31.5339092469        1.2008721357      -13.0460673147  SOLV      2880            0.0000000000
      8754      2891  TIP3      H2            -32.9951289896        1.1194561033      -13.3289863089  SOLV      2880            0.0000000000
      8755      2892  TIP3      OH2           -29.3019046356        7.9228508311       -2.0306413353  SOLV      2881            0.0000000000
      8756      2892  TIP3      H1            -30.0998533776        7.3598830762       -2.1178376802  SOLV      2881            0.0000000000
      8757      2892  TIP3      H2            -29.4493524258        8.5469230898       -2.7752401840  SOLV      2881            0.0000000000
      8758      2893  TIP3      OH2           -37.6685857926       -6.1385271434        3.1237550582  SOLV      2882            0.0000000000
      8759      2893  TIP3      H1            -38.5774995194       -5.7908678383        3.1303310856  SOLV      2882            0.0000000000
      8760      2893  TIP3      H2            -37.6463793759       -6.5904618822        3.9844925403  SOLV      2882            0.0000000000
      8761      2894  TIP3      OH2           -30.4625007925        0.7687730302      -11.8284693075  SOLV      2883            0.0000000000
      8762      2894  TIP3      H1            -30.3173786673        0.6769312539      -10.8570476168  SOLV      2883            0.0000000000
      8763      2894  TIP3      H2            -29.5276217605        0.6607879986      -12.0955900064  SOLV      2883            0.0000000000
      8764      2895  TIP3      OH2           -38.4641918848        1.1616323826      -11.4246606559  SOLV      2884            0.0000000000
      8765      2895  TIP3      H1            -38.7451858697        0.3711980892      -10.9015851576  SOLV      2884            0.0000000000
      8766      2895  TIP3      H2            -39.2428392634        1.7271601099      -11.2016261663  SOLV      2884            0.0000000000
      8767      2896  TIP3      OH2           -30.0530530037       -5.3534662481       -0.0425352797  SOLV      2885            0.0000000000
      8768      2896  TIP3      H1            -29.2374878113       -4.9555047489        0.3066184576  SOLV      2885            0.0000000000
      8769      2896  TIP3      H2            -30.1578641767       -6.1583340058        0.5077434410  SOLV      2885            0.0000000000
      8770      2897  TIP3      OH2           -31.1827479746       -7.8977775952       -8.3517806033  SOLV      2886            0.0000000000
      8771      2897  TIP3      H1            -31.3536637626       -7.6340819875       -9.2741697339  SOLV      2886            0.0000000000
      8772      2897  TIP3      H2            -30.8012155359       -7.0715955012       -7.9755320385  SOLV      2886            0.0000000000
      8773      2898  TIP3      OH2           -36.4452961392        3.3344335187      -12.2597460067  SOLV      2887            0.0000000000
      8774      2898  TIP3      H1            -37.2160264600        3.5701941273      -11.6762772420  SOLV      2887            0.0000000000
      8775      2898  TIP3      H2            -35.8090793584        3.9817552066      -11.9168508123  SOLV      2887            0.0000000000
      8776      2899  TIP3      OH2           -34.4674606494       -6.0545371753       -7.3752583143  SOLV      2888            0.0000000000
      8777      2899  TIP3      H1            -33.8325492657       -5.3267047877       -7.5653541773  SOLV      2888            0.0000000000
      8778      2899  TIP3      H2            -34.3744753800       -6.1352221251       -6.4026650748  SOLV      2888            0.0000000000
      8779      2900  TIP3      OH2           -31.7163455245       -2.9113068302        0.6880895458  SOLV      2889            0.0000000000
      8780      2900  TIP3      H1            -31.4250058794       -2.4076153748        1.4736563045  SOLV      2889            0.0000000000
      8781      2900  TIP3      H2            -31.1777159066       -3.7210228559        0.7384359633  SOLV      2889            0.0000000000
      8782      2901  TIP3      OH2           -32.9940638701       -8.8586645195       -6.4095772796  SOLV      2890            0.0000000000
      8783      2901  TIP3      H1            -33.1261313516       -8.0874948121       -5.8221161333  SOLV      2890            0.0000000000
      8784      2901  TIP3      H2            -32.3446591249       -8.4891886193       -7.0512826131  SOLV      2890            0.0000000000
      8785      2902  TIP3      OH2           -38.4535816808        4.1956091005      -10.7872240589  SOLV      2891            0.0000000000
      8786      2902  TIP3      H1            -39.0020510890        4.5210000128      -11.5192286137  SOLV      2891            0.0000000000
      8787      2902  TIP3      H2            -38.8145294714        4.7238972273      -10.0577182588  SOLV      2891            0.0000000000
      8788      2903  TIP3      OH2           -37.8607502399       -8.7410290256       -8.4126462804  SOLV      2892            0.0000000000
      8789      2903  TIP3      H1            -37.8542303483       -7.8020203579       -8.1213568817  SOLV      2892            0.0000000000
      8790      2903  TIP3      H2            -36.8972071395       -8.9185758927       -8.3524027514  SOLV      2892            0.0000000000
      8791      2904  TIP3      OH2           -25.3371790336       -3.8435072639        0.5417163551  SOLV      2893            0.0000000000
      8792      2904  TIP3      H1            -26.3191983348       -3.8789772814        0.5844301924  SOLV      2893            0.0000000000
      8793      2904  TIP3      H2            -25.1898899927       -4.2400800249       -0.3273286938  SOLV      2893            0.0000000000
      8794      2905  TIP3      OH2           -28.8551692518       -1.8223065429       -5.1106833612  SOLV      2894            0.0000000000
      8795      2905  TIP3      H1            -29.4035957049       -2.2795816420       -5.7642222124  SOLV      2894            0.0000000000
      8796      2905  TIP3      H2            -28.0582668748       -2.3810631316       -5.0740104901  SOLV      2894            0.0000000000
      8797      2906  TIP3      OH2           -29.1190449097        7.7708413349       -6.1653228583  SOLV      2895            0.0000000000
      8798      2906  TIP3      H1            -29.5398566311        8.2138710783       -6.9363487512  SOLV      2895            0.0000000000
      8799      2906  TIP3      H2            -28.1710998980        7.9212452639       -6.3812205747  SOLV      2895            0.0000000000
      8800      2907  TIP3      OH2           -38.4016307377       -9.6854984875       -0.8311637417  SOLV      2896            0.0000000000
      8801      2907  TIP3      H1            -38.6837891743      -10.0565286366       -1.6901087934  SOLV      2896            0.0000000000
      8802      2907  TIP3      H2            -38.4895492037      -10.4611905304       -0.2368379200  SOLV      2896            0.0000000000
      8803      2908  TIP3      OH2           -35.5008391064        7.9186423659        4.0805506951  SOLV      2897            0.0000000000
      8804      2908  TIP3      H1            -35.2107327778        7.0284542566        3.7939676134  SOLV      2897            0.0000000000
      8805      2908  TIP3      H2            -36.2081306393        8.1259028204        3.4551805561  SOLV      2897            0.0000000000
      8806      2909  TIP3      OH2           -30.2576392466        6.6867215959        1.5069045757  SOLV      2898            0.0000000000
      8807      2909  TIP3      H1            -30.2707473513        5.9598333234        2.1722434838  SOLV      2898            0.0000000000
      8808      2909  TIP3      H2            -29.4539318820        7.1819553180        1.7580709927  SOLV      2898            0.0000000000
      8809      2910  TIP3      OH2           -32.5119188563        3.7182107015      -15.5250640759  SOLV      2899            0.0000000000
      8810      2910  TIP3      H1            -32.0061758285        3.1641494747      -14.9050647670  SOLV      2899            0.0000000000
      8811      2910  TIP3      H2            -31.9566186117        3.6797238655      -16.3372064012  SOLV      2899            0.0000000000
      8812      2911  TIP3      OH2           -40.2028548002       -1.4085034557      -12.6355096190  SOLV      2900            0.0000000000
      8813      2911  TIP3      H1            -39.9590834802       -1.4314246722      -11.6821260915  SOLV      2900            0.0000000000
      8814      2911  TIP3      H2            -39.3432099588       -1.5868800051      -13.0533983901  SOLV      2900            0.0000000000
      8815      2912  TIP3      OH2           -33.8844815197        2.8395299299        3.1590263810  SOLV      2901            0.0000000000
      8816      2912  TIP3      H1            -34.2277608211        2.9228476597        2.2530155555  SOLV      2901            0.0000000000
      8817      2912  TIP3      H2            -33.5585764378        1.9113180892        3.1632883957  SOLV      2901            0.0000000000
      8818      2913  TIP3      OH2           -29.0721320479        3.0448008795       -0.4607626549  SOLV      2902            0.0000000000
      8819      2913  TIP3      H1            -28.3011880462        3.3980951797       -0.9448801501  SOLV      2902            0.0000000000
      8820      2913  TIP3      H2            -29.7486407599        3.7064022629       -0.7070378096  SOLV      2902            0.0000000000
      8821      2914  TIP3      OH2           -35.0595623179       -1.5496568544        2.2917094640  SOLV      2903            0.0000000000
      8822      2914  TIP3      H1            -36.0165068318       -1.5313214290        2.1182742607  SOLV      2903            0.0000000000
      8823      2914  TIP3      H2            -34.6875559716       -1.3155387076        1.4067508832  SOLV      2903            0.0000000000
      8824      2915  TIP3      OH2           -37.0962357941       -4.7965069559      -11.7881721910  SOLV      2904            0.0000000000
      8825      2915  TIP3      H1            -37.3745825713       -4.4563671468      -12.6604415065  SOLV      2904            0.0000000000
      8826      2915  TIP3      H2            -36.1537626188       -4.5485188028      -11.7885541082  SOLV      2904            0.0000000000
      8827      2916  TIP3      OH2           -30.3040970615        2.2261192837        3.4350969586  SOLV      2905            0.0000000000
      8828      2916  TIP3      H1            -29.6329409998        1.8346790909        2.8588235918  SOLV      2905            0.0000000000
      8829      2916  TIP3      H2            -30.4063674098        1.5420841521        4.1205301235  SOLV      2905            0.0000000000
      8830      2917  TIP3      OH2           -29.0831973972       -1.2503449171      -15.0956954609  SOLV      2906            0.0000000000
      8831      2917  TIP3      H1            -29.2621367055       -1.6423399374      -15.9729052961  SOLV      2906            0.0000000000
      8832      2917  TIP3      H2            -29.3884856136       -0.3277180490      -15.2675849902  SOLV      2906            0.0000000000
      8833      2918  TIP3      OH2           -34.2837417614       -3.9312293357        3.4059637441  SOLV      2907            0.0000000000
      8834      2918  TIP3      H1            -34.2961774779       -4.6913577079        2.7872019195  SOLV      2907            0.0000000000
      8835      2918  TIP3      H2            -34.6111927111       -3.1999002627        2.8399270530  SOLV      2907            0.0000000000
      8836      2919  TIP3      OH2           -34.1223517797       -6.0097553612        1.4901345538  SOLV      2908            0.0000000000
      8837      2919  TIP3      H1            -33.8479325579       -5.5549696427        0.6658956931  SOLV      2908            0.0000000000
      8838      2919  TIP3      H2            -35.0023944349       -6.3545070694        1.2311059411  SOLV      2908            0.0000000000
      8839      2920  TIP3      OH2           -34.0151485457       -0.7234960099       -0.0374491552  SOLV      2909            0.0000000000
      8840      2920  TIP3      H1            -33.1368207044       -0.5338039923       -0.3971920312  SOLV      2909            0.0000000000
      8841      2920  TIP3      H2            -34.5556625311       -0.0028449490       -0.4204474807  SOLV      2909            0.0000000000
      8842      2921  TIP3      OH2           -28.2169415394       -1.0523716179        3.9338600311  SOLV      2910            0.0000000000
      8843      2921  TIP3      H1            -27.7571286456       -1.8929503827        4.0886101851  SOLV      2910            0.0000000000
      8844      2921  TIP3      H2            -27.5241454822       -0.5225865955        3.5144690548  SOLV      2910            0.0000000000
      8845      2922  TIP3      OH2           -27.8131593616        1.5488291349        1.3969684810  SOLV      2911            0.0000000000
      8846      2922  TIP3      H1            -28.3749181894        2.0934977527        0.7949311381  SOLV      2911            0.0000000000
      8847      2922  TIP3      H2            -26.9313823803        1.7220559512        0.9994890858  SOLV      2911            0.0000000000
      8848      2923  TIP3      OH2           -35.4661392165       -2.8901059797        5.7739249204  SOLV      2912            0.0000000000
      8849      2923  TIP3      H1            -36.2163611792       -3.5096490799        5.8730165844  SOLV      2912            0.0000000000
      8850      2923  TIP3      H2            -35.1934768775       -3.0687849413        4.8499208535  SOLV      2912            0.0000000000
      8851      2924  TIP3      OH2           -32.9362617909       -8.4526511457        2.1526033962  SOLV      2913            0.0000000000
      8852      2924  TIP3      H1            -33.4009632994       -7.6182253113        1.9252083939  SOLV      2913            0.0000000000
      8853      2924  TIP3      H2            -33.6399379405       -9.1185439169        2.0116496910  SOLV      2913            0.0000000000
      8854      2925  TIP3      OH2           -31.6952142177       -3.4201232976        4.2796419223  SOLV      2914            0.0000000000
      8855      2925  TIP3      H1            -31.8619633033       -3.6008306878        5.2232057638  SOLV      2914            0.0000000000
      8856      2925  TIP3      H2            -32.5767522031       -3.6562632674        3.9172086288  SOLV      2914            0.0000000000
      8857      2926  TIP3      OH2           -29.3092699303       -3.8478101898        2.8395673577  SOLV      2915            0.0000000000
      8858      2926  TIP3      H1            -30.0476634416       -3.8637813473        3.4800761064  SOLV      2915            0.0000000000
      8859      2926  TIP3      H2            -28.5549699061       -4.1612080050        3.3833163447  SOLV      2915            0.0000000000
      8860      2927  TIP3      OH2           -27.0508427561       -4.4866132705        4.3116930198  SOLV      2916            0.0000000000
      8861      2927  TIP3      H1            -26.8943831513       -5.4415879801        4.4710841296  SOLV      2916            0.0000000000
      8862      2927  TIP3      H2            -27.0587484174       -4.1194933322        5.2203664219  SOLV      2916            0.0000000000
      8863      2928  TIP3      OH2           -37.3285576175       -4.8855932177        6.4809358639  SOLV      2917            0.0000000000
      8864      2928  TIP3      H1            -37.4422151406       -5.6894318230        5.9451731822  SOLV      2917            0.0000000000
      8865      2928  TIP3      H2            -36.7605651861       -5.2181279870        7.2011481382  SOLV      2917            0.0000000000
      8866      2929  TIP3      OH2           -32.0729274857       -8.3567487762        4.7472317036  SOLV      2918            0.0000000000
      8867      2929  TIP3      H1            -31.3848249538       -9.0479140385        4.6678391310  SOLV      2918            0.0000000000
      8868      2929  TIP3      H2            -32.4402799384       -8.3786307265        3.8392856368  SOLV      2918            0.0000000000
      8869      2930  TIP3      OH2           -31.3339527021       -6.1952657726        6.2892289562  SOLV      2919            0.0000000000
      8870      2930  TIP3      H1            -31.5528105811       -6.9092223212        5.6517649035  SOLV      2919            0.0000000000
      8871      2930  TIP3      H2            -32.1160020506       -5.6079186691        6.2204362977  SOLV      2919            0.0000000000
      8872      2931  TIP3      OH2           -39.0765809672        6.3429560487      -12.5268083431  SOLV      2920            0.0000000000
      8873      2931  TIP3      H1            -38.1619583471        6.1081019603      -12.7989499486  SOLV      2920            0.0000000000
      8874      2931  TIP3      H2            -39.2674179905        7.0159049606      -13.2085000183  SOLV      2920            0.0000000000
      8875      2932  TIP3      OH2           -26.5419457550        8.5822976954       -6.5328022459  SOLV      2921            0.0000000000
      8876      2932  TIP3      H1            -26.2594545561        8.8733514749       -5.6480624003  SOLV      2921            0.0000000000
      8877      2932  TIP3      H2            -25.8341776397        8.9188658156       -7.1039217293  SOLV      2921            0.0000000000
      8878      2933  TIP3      OH2           -26.2591661976        8.7838784811       -3.7090260002  SOLV      2922            0.0000000000
      8879      2933  TIP3      H1            -26.7384417721        7.9258958963       -3.7397550795  SOLV      2922            0.0000000000
      8880      2933  TIP3      H2            -25.4933097468        8.5108693741       -3.1812284933  SOLV      2922            0.0000000000
      8881      2934  TIP3      OH2           -25.7848146383        5.5242542107        2.0432397509  SOLV      2923            0.0000000000
      8882      2934  TIP3      H1            -26.5129586267        5.6319520377        2.6870198843  SOLV      2923            0.0000000000
      8883      2934  TIP3      H2            -25.3703285531        6.4094705055        2.0629267252  SOLV      2923            0.0000000000
      8884      2935  TIP3      OH2           -27.6857744535        0.6398945456      -12.0081766336  SOLV      2924            0.0000000000
      8885      2935  TIP3      H1            -26.8924684272        1.2051801881      -12.0560548204  SOLV      2924            0.0000000000
      8886      2935  TIP3      H2            -27.8383560145        0.5738514941      -11.0387886818  SOLV      2924            0.0000000000
      8887      2936  TIP3      OH2           -26.2580840404       -0.8706172356       -9.6281165579  SOLV      2925            0.0000000000
      8888      2936  TIP3      H1            -27.1780179925       -0.5947931087       -9.4049000885  SOLV      2925            0.0000000000
      8889      2936  TIP3      H2            -25.7398075023       -0.3077871263       -9.0293657605  SOLV      2925            0.0000000000
      8890      2937  TIP3      OH2           -25.7263847015        3.3129031712       -5.4067931628  SOLV      2926            0.0000000000
      8891      2937  TIP3      H1            -25.2870075932        2.5730048560       -5.8712643844  SOLV      2926            0.0000000000
      8892      2937  TIP3      H2            -25.8841901733        3.9508817191       -6.1253855256  SOLV      2926            0.0000000000
      8893      2938  TIP3      OH2           -27.4524530131        6.3288366130       -3.3994017259  SOLV      2927            0.0000000000
      8894      2938  TIP3      H1            -28.2031748035        6.7115525697       -2.9081906981  SOLV      2927            0.0000000000
      8895      2938  TIP3      H2            -27.9280520869        5.8614940510       -4.1293026540  SOLV      2927            0.0000000000
      8896      2939  TIP3      OH2           -26.9821718625       -1.6304526485      -13.3570203413  SOLV      2928            0.0000000000
      8897      2939  TIP3      H1            -27.7275504380       -1.5784628582      -13.9949556487  SOLV      2928            0.0000000000
      8898      2939  TIP3      H2            -27.2164945507       -0.8715495062      -12.7764564265  SOLV      2928            0.0000000000
      8899      2940  TIP3      OH2           -28.2537802818       -4.9095822837      -13.8273934946  SOLV      2929            0.0000000000
      8900      2940  TIP3      H1            -28.7721106939       -4.4982441711      -14.5273004538  SOLV      2929            0.0000000000
      8901      2940  TIP3      H2            -28.4892741992       -5.8530958704      -13.9462529636  SOLV      2929            0.0000000000
      8902      2941  TIP3      OH2           -25.3331859757        2.1506160106        0.3014389826  SOLV      2930            0.0000000000
      8903      2941  TIP3      H1            -24.6326879133        1.4735263609        0.1733006615  SOLV      2930            0.0000000000
      8904      2941  TIP3      H2            -25.1683674905        2.7617461844       -0.4329864661  SOLV      2930            0.0000000000
      8905      2942  TIP3      OH2           -23.5000334472        0.1479383675        0.3737406177  SOLV      2931            0.0000000000
      8906      2942  TIP3      H1            -24.2617349886       -0.3430592552        0.7537363317  SOLV      2931            0.0000000000
      8907      2942  TIP3      H2            -22.7800417139       -0.4971654160        0.5478838125  SOLV      2931            0.0000000000
      8908      2943  TIP3      OH2           -28.8144641687       -7.5970417896      -14.0587009609  SOLV      2932            0.0000000000
      8909      2943  TIP3      H1            -28.1312207603       -7.8435659133      -13.4034417149  SOLV      2932            0.0000000000
      8910      2943  TIP3      H2            -29.6000829916       -8.0947107229      -13.7733846418  SOLV      2932            0.0000000000
      8911      2944  TIP3      OH2           -28.4214394181       -5.1022253765       -9.4915583398  SOLV      2933            0.0000000000
      8912      2944  TIP3      H1            -27.8919564853       -5.9269637865       -9.4135466864  SOLV      2933            0.0000000000
      8913      2944  TIP3      H2            -27.7609599419       -4.4923989643       -9.8550115860  SOLV      2933            0.0000000000
      8914      2945  TIP3      OH2           -26.5988316516       -3.3847782919       -4.4326765441  SOLV      2934            0.0000000000
      8915      2945  TIP3      H1            -25.7526982809       -3.0981642101       -4.8443094956  SOLV      2934            0.0000000000
      8916      2945  TIP3      H2            -26.5135077567       -2.9378665323       -3.5704129370  SOLV      2934            0.0000000000
      8917      2946  TIP3      OH2           -25.9348899791       -1.7680615134       -2.1481793030  SOLV      2935            0.0000000000
      8918      2946  TIP3      H1            -26.7269451297       -1.4321951380       -1.6880403024  SOLV      2935            0.0000000000
      8919      2946  TIP3      H2            -25.6171020600       -0.9573645062       -2.6022192944  SOLV      2935            0.0000000000
      8920      2947  TIP3      OH2           -21.5128389517       -5.8432595036        3.4221346073  SOLV      2936            0.0000000000
      8921      2947  TIP3      H1            -20.8527421492       -6.4572888239        3.0334047743  SOLV      2936            0.0000000000
      8922      2947  TIP3      H2            -21.7814019338       -5.3126118270        2.6434382842  SOLV      2936            0.0000000000
      8923      2948  TIP3      OH2           -27.0875292447       -7.4871870172       -9.0539906169  SOLV      2937            0.0000000000
      8924      2948  TIP3      H1            -26.6553079190       -7.5951611400       -8.1812470081  SOLV      2937            0.0000000000
      8925      2948  TIP3      H2            -27.7533469934       -8.2020341004       -9.0187733201  SOLV      2937            0.0000000000
      8926      2949  TIP3      OH2           -40.1849457106       -7.5265482266       -1.2118071040  SOLV      2938            0.0000000000
      8927      2949  TIP3      H1            -39.6667188044       -8.2633987034       -0.8346657337  SOLV      2938            0.0000000000
      8928      2949  TIP3      H2            -39.5097517889       -6.8195152837       -1.1827612473  SOLV      2938            0.0000000000
      8929      2950  TIP3      OH2           -22.7798349595       -4.4666383363        1.4297985580  SOLV      2939            0.0000000000
      8930      2950  TIP3      H1            -23.6423187923       -4.0374056676        1.6021014044  SOLV      2939            0.0000000000
      8931      2950  TIP3      H2            -23.0862086183       -5.2297362847        0.8989684476  SOLV      2939            0.0000000000
      8932      2951  TIP3      OH2           -26.4196354917       -8.1241270926      -12.6221492807  SOLV      2940            0.0000000000
      8933      2951  TIP3      H1            -25.9451388286       -8.7767547415      -13.1716724737  SOLV      2940            0.0000000000
      8934      2951  TIP3      H2            -25.7883959178       -7.3761064963      -12.5983757733  SOLV      2940            0.0000000000
      8935      2952  TIP3      OH2           -30.7708113760        7.2124400428      -10.0457383434  SOLV      2941            0.0000000000
      8936      2952  TIP3      H1            -30.2171643408        7.1459046022      -10.8528620728  SOLV      2941            0.0000000000
      8937      2952  TIP3      H2            -30.2682304067        7.8505909453       -9.5117577876  SOLV      2941            0.0000000000
      8938      2953  TIP3      OH2           -33.2195915056        7.8303132157        0.7138492817  SOLV      2942            0.0000000000
      8939      2953  TIP3      H1            -32.7691500133        7.9236140439        1.5773394545  SOLV      2942            0.0000000000
      8940      2953  TIP3      H2            -32.6828860152        8.4281162479        0.1507845733  SOLV      2942            0.0000000000
      8941      2954  TIP3      OH2           -31.7253403798        9.6347701933       -0.7477182139  SOLV      2943            0.0000000000
      8942      2954  TIP3      H1            -31.0415126317        9.1407901629       -1.2243572658  SOLV      2943            0.0000000000
      8943      2954  TIP3      H2            -31.1764631445       10.1869276388       -0.1470386796  SOLV      2943            0.0000000000
      8944      2955  TIP3      OH2           -23.7522155963       -6.8387909080        0.2987016196  SOLV      2944            0.0000000000
      8945      2955  TIP3      H1            -24.6447911117       -6.9250591249       -0.0778663709  SOLV      2944            0.0000000000
      8946      2955  TIP3      H2            -23.4175527479       -7.7615367153        0.2117940718  SOLV      2944            0.0000000000
      8947      2956  TIP3      OH2           -34.3431396590        8.1951665516       -3.7138825344  SOLV      2945            0.0000000000
      8948      2956  TIP3      H1            -35.0660071943        8.2889414199       -4.3788446391  SOLV      2945            0.0000000000
      8949      2956  TIP3      H2            -34.3873388194        9.0615994157       -3.2621963514  SOLV      2945            0.0000000000
      8950      2957  TIP3      OH2           -31.7355786296        7.5778871805       -3.2609584440  SOLV      2946            0.0000000000
      8951      2957  TIP3      H1            -32.6843974430        7.7459314217       -3.4477253018  SOLV      2946            0.0000000000
      8952      2957  TIP3      H2            -31.3130945399        8.2552357057       -3.8141062725  SOLV      2946            0.0000000000
      8953      2958  TIP3      OH2           -29.8018402543        9.5275160385       -4.1994423884  SOLV      2947            0.0000000000
      8954      2958  TIP3      H1            -29.9573630498       10.3631559636       -4.6882755847  SOLV      2947            0.0000000000
      8955      2958  TIP3      H2            -29.5360749544        8.9221378448       -4.9307132146  SOLV      2947            0.0000000000
      8956      2959  TIP3      OH2           -37.4236846341        5.7099322524       -4.1814591661  SOLV      2948            0.0000000000
      8957      2959  TIP3      H1            -37.3120148454        4.7558857759       -4.3519561402  SOLV      2948            0.0000000000
      8958      2959  TIP3      H2            -36.6612284485        5.8517924132       -3.5846761846  SOLV      2948            0.0000000000
      8959      2960  TIP3      OH2           -31.6651015551       -7.6757902304       -3.4516606564  SOLV      2949            0.0000000000
      8960      2960  TIP3      H1            -32.1127068621       -8.4030221711       -2.9860563384  SOLV      2949            0.0000000000
      8961      2960  TIP3      H2            -30.9164918669       -8.1277596516       -3.8890193509  SOLV      2949            0.0000000000
      8962      2961  TIP3      OH2           -26.5409247629       -8.9506369064       -4.5044989782  SOLV      2950            0.0000000000
      8963      2961  TIP3      H1            -26.1552478429       -8.3946188083       -5.2184774185  SOLV      2950            0.0000000000
      8964      2961  TIP3      H2            -27.4666620158       -8.6444779144       -4.4989932574  SOLV      2950            0.0000000000
      8965      2962  TIP3      OH2           -25.5240641986       -7.9442414371       -6.8288778985  SOLV      2951            0.0000000000
      8966      2962  TIP3      H1            -24.7653931189       -8.4328506752       -7.2096351783  SOLV      2951            0.0000000000
      8967      2962  TIP3      H2            -25.2012771227       -7.0208078231       -6.9570308171  SOLV      2951            0.0000000000
      8968      2963  TIP3      OH2           -39.2173191246      -10.6861308645       -3.3323567448  SOLV      2952            0.0000000000
      8969      2963  TIP3      H1            -40.0417709528      -11.1099305252       -3.6011347275  SOLV      2952            0.0000000000
      8970      2963  TIP3      H2            -38.6151294474      -11.4639384049       -3.3249175137  SOLV      2952            0.0000000000
      8971      2964  TIP3      OH2           -40.8880989648      -11.7668855996       -6.6606733342  SOLV      2953            0.0000000000
      8972      2964  TIP3      H1            -40.6970854111      -11.2475217764       -7.4601341943  SOLV      2953            0.0000000000
      8973      2964  TIP3      H2            -41.8559896940      -11.8261770241       -6.6707992419  SOLV      2953            0.0000000000
      8974      2965  TIP3      OH2           -34.7646308400      -10.3055417030       -4.5037863246  SOLV      2954            0.0000000000
      8975      2965  TIP3      H1            -34.2474260395       -9.8186120106       -5.1653084071  SOLV      2954            0.0000000000
      8976      2965  TIP3      H2            -34.4812050419       -9.8736309221       -3.6838696441  SOLV      2954            0.0000000000
      8977      2966  TIP3      OH2           -29.3941141900       -8.7979574441       -4.6807183067  SOLV      2955            0.0000000000
      8978      2966  TIP3      H1            -29.3603718091       -9.1654074117       -5.5718266178  SOLV      2955            0.0000000000
      8979      2966  TIP3      H2            -29.4938011245       -9.6098775477       -4.1296002767  SOLV      2955            0.0000000000
      8980      2967  TIP3      OH2           -29.0140182539       -9.5486104846       -9.0740661674  SOLV      2956            0.0000000000
      8981      2967  TIP3      H1            -29.8361094582       -9.0583136490       -8.8700727124  SOLV      2956            0.0000000000
      8982      2967  TIP3      H2            -29.1899471755      -10.3984911616       -8.6197279590  SOLV      2956            0.0000000000
      8983      2968  TIP3      OH2           -40.1975154274      -10.2093234432       -9.1822241578  SOLV      2957            0.0000000000
      8984      2968  TIP3      H1            -39.6144663403      -10.7361568844       -9.7647242665  SOLV      2957            0.0000000000
      8985      2968  TIP3      H2            -39.5343153670       -9.6055025350       -8.7830956433  SOLV      2957            0.0000000000
      8986      2969  TIP3      OH2           -35.0820865980       -8.5591994789       -8.2296727046  SOLV      2958            0.0000000000
      8987      2969  TIP3      H1            -34.4348543844       -8.9713617737       -7.6304419063  SOLV      2958            0.0000000000
      8988      2969  TIP3      H2            -34.9187216803       -7.6150228880       -7.9997068830  SOLV      2958            0.0000000000
      8989      2970  TIP3      OH2           -36.5594325228        5.9326813614      -13.4581338111  SOLV      2959            0.0000000000
      8990      2970  TIP3      H1            -35.6300866647        6.1171958507      -13.7024863204  SOLV      2959            0.0000000000
      8991      2970  TIP3      H2            -36.6041298735        4.9895601554      -13.6736146250  SOLV      2959            0.0000000000
      8992      2971  TIP3      OH2           -29.2148078587        6.8956207769      -12.3312627058  SOLV      2960            0.0000000000
      8993      2971  TIP3      H1            -29.3559387696        5.9239189116      -12.4308235474  SOLV      2960            0.0000000000
      8994      2971  TIP3      H2            -29.6771366538        7.2203288676      -13.1382748529  SOLV      2960            0.0000000000
      8995      2972  TIP3      OH2           -37.1838852404       -7.7452422193        5.6289732421  SOLV      2961            0.0000000000
      8996      2972  TIP3      H1            -37.4727983220       -8.5407327411        6.1287705454  SOLV      2961            0.0000000000
      8997      2972  TIP3      H2            -36.2418617802       -7.7247622264        5.8990819496  SOLV      2961            0.0000000000
      8998      2973  TIP3      OH2           -34.6392370987       -7.7920855518        6.8165333312  SOLV      2962            0.0000000000
      8999      2973  TIP3      H1            -33.7955790718       -7.9562927148        6.3602895343  SOLV      2962            0.0000000000
      9000      2973  TIP3      H2            -34.6801385706       -8.5562590070        7.4231007198  SOLV      2962            0.0000000000
      9001      2974  TIP3      OH2           -26.3618146191       -7.1865115762        4.6398686180  SOLV      2963            0.0000000000
      9002      2974  TIP3      H1            -26.1969923966       -7.4887802084        5.5603405221  SOLV      2963            0.0000000000
      9003      2974  TIP3      H2            -25.4604113848       -7.2335729340        4.2563515122  SOLV      2963            0.0000000000
      9004      2975  TIP3      OH2           -27.0557100577        8.3174536925       -0.4192406296  SOLV      2964            0.0000000000
      9005      2975  TIP3      H1            -27.8204354228        8.0220576968       -0.9589457447  SOLV      2964            0.0000000000
      9006      2975  TIP3      H2            -27.2396616796        9.2776612321       -0.3776692755  SOLV      2964            0.0000000000
      9007      2976  TIP3      OH2           -14.3516668483        2.0569713186      -12.8362845619  SOLV      2965            0.0000000000
      9008      2976  TIP3      H1            -14.6599222493        2.9623088735      -13.0607953686  SOLV      2965            0.0000000000
      9009      2976  TIP3      H2            -15.1287774788        1.5502664042      -13.1219556882  SOLV      2965            0.0000000000
      9010      2977  TIP3      OH2           -14.3269672471        2.0621513926       -8.9233460365  SOLV      2966            0.0000000000
      9011      2977  TIP3      H1            -13.9694452516        1.8325040693       -8.0443175073  SOLV      2966            0.0000000000
      9012      2977  TIP3      H2            -14.7530653891        1.2316701878       -9.1874740622  SOLV      2966            0.0000000000
      9013      2978  TIP3      OH2           -21.3727544215        0.9766565734       -5.3165946023  SOLV      2967            0.0000000000
      9014      2978  TIP3      H1            -21.0870566382        0.2704314762       -4.7070349867  SOLV      2967            0.0000000000
      9015      2978  TIP3      H2            -20.5487087730        1.4719523748       -5.4257951845  SOLV      2967            0.0000000000
      9016      2979  TIP3      OH2           -11.8557213046        5.0633270290      -12.1403216573  SOLV      2968            0.0000000000
      9017      2979  TIP3      H1            -12.0755521241        4.4161225629      -11.4578333224  SOLV      2968            0.0000000000
      9018      2979  TIP3      H2            -11.5818245924        5.8349481547      -11.6177063216  SOLV      2968            0.0000000000
      9019      2980  TIP3      OH2           -21.6154226905        5.1353756004       -8.0881918692  SOLV      2969            0.0000000000
      9020      2980  TIP3      H1            -21.6900328960        4.1548729333       -8.0926178759  SOLV      2969            0.0000000000
      9021      2980  TIP3      H2            -20.6508042157        5.2269657231       -8.1981520261  SOLV      2969            0.0000000000
      9022      2981  TIP3      OH2           -24.5488677381       -2.9583205679      -10.2587318778  SOLV      2970            0.0000000000
      9023      2981  TIP3      H1            -25.0684830653       -2.1849406873       -9.9446167620  SOLV      2970            0.0000000000
      9024      2981  TIP3      H2            -25.2511754202       -3.4220518374      -10.7511344500  SOLV      2970            0.0000000000
      9025      2982  TIP3      OH2           -23.8944887546        0.0847989643       -8.4176541203  SOLV      2971            0.0000000000
      9026      2982  TIP3      H1            -23.4583599088       -0.7483878460       -8.1345830371  SOLV      2971            0.0000000000
      9027      2982  TIP3      H2            -23.3935119442        0.3190005130       -9.2071725205  SOLV      2971            0.0000000000
      9028      2983  TIP3      OH2           -15.3256728030        9.7688325831      -11.9645245499  SOLV      2972            0.0000000000
      9029      2983  TIP3      H1            -14.9564679730        9.0465038083      -12.5133439162  SOLV      2972            0.0000000000
      9030      2983  TIP3      H2            -15.5797455743        9.2961022836      -11.1632910612  SOLV      2972            0.0000000000
      9031      2984  TIP3      OH2           -16.3829821925        4.3280257774       -8.4860430099  SOLV      2973            0.0000000000
      9032      2984  TIP3      H1            -15.9680561322        3.5643714992       -8.9214843143  SOLV      2973            0.0000000000
      9033      2984  TIP3      H2            -15.5629208714        4.8037096083       -8.2293215339  SOLV      2973            0.0000000000
      9034      2985  TIP3      OH2            -6.2234823918       -2.4708886018       -8.4756780900  SOLV      2974            0.0000000000
      9035      2985  TIP3      H1             -5.9189956329       -1.6614471208       -8.0148700557  SOLV      2974            0.0000000000
      9036      2985  TIP3      H2             -6.0411618788       -2.2428492402       -9.4012948052  SOLV      2974            0.0000000000
      9037      2986  TIP3      OH2           -12.2511052272       -0.6747317877       -8.2171594856  SOLV      2975            0.0000000000
      9038      2986  TIP3      H1            -11.8329771380       -1.5244612780       -7.9802988239  SOLV      2975            0.0000000000
      9039      2986  TIP3      H2            -12.5699140858       -0.8743580716       -9.1179247937  SOLV      2975            0.0000000000
      9040      2987  TIP3      OH2           -18.8179091380       -4.0864905612       -8.5535448859  SOLV      2976            0.0000000000
      9041      2987  TIP3      H1            -19.0145457133       -3.3536062311       -9.1745061083  SOLV      2976            0.0000000000
      9042      2987  TIP3      H2            -19.3274834022       -4.8085808205       -8.9808611239  SOLV      2976            0.0000000000
      9043      2988  TIP3      OH2           -11.8702416546       -3.1789252111      -12.3398535474  SOLV      2977            0.0000000000
      9044      2988  TIP3      H1            -11.1781938887       -3.3186893726      -11.6515133565  SOLV      2977            0.0000000000
      9045      2988  TIP3      H2            -11.3207998297       -2.8144743187      -13.0592596884  SOLV      2977            0.0000000000
      9046      2989  TIP3      OH2           -22.5288615025       -2.0899841197       -7.4575387290  SOLV      2978            0.0000000000
      9047      2989  TIP3      H1            -21.7001308642       -2.2607643936       -6.9721985799  SOLV      2978            0.0000000000
      9048      2989  TIP3      H2            -22.3716458841       -2.6346880176       -8.2581937694  SOLV      2978            0.0000000000
      9049      2990  TIP3      OH2           -18.1346483360       -0.0977497645       -9.4794502267  SOLV      2979            0.0000000000
      9050      2990  TIP3      H1            -17.1875559640       -0.3319778134       -9.3713559903  SOLV      2979            0.0000000000
      9051      2990  TIP3      H2            -18.5075869090       -0.9370328367       -9.8247744372  SOLV      2979            0.0000000000
      9052      2991  TIP3      OH2            -5.4358399904       -0.3434362626       -6.8699056026  SOLV      2980            0.0000000000
      9053      2991  TIP3      H1             -6.3232557569        0.0490253072       -7.0010272153  SOLV      2980            0.0000000000
      9054      2991  TIP3      H2             -5.3881357817       -0.3184437165       -5.8972698553  SOLV      2980            0.0000000000
      9055      2992  TIP3      OH2           -18.8988871859       -4.2546680014       -4.1833289092  SOLV      2981            0.0000000000
      9056      2992  TIP3      H1            -19.4878551070       -3.8731052884       -4.8615425378  SOLV      2981            0.0000000000
      9057      2992  TIP3      H2            -19.4245626769       -4.0782330150       -3.3754603769  SOLV      2981            0.0000000000
      9058      2993  TIP3      OH2           -15.5957744852        4.1861624310      -14.0799130803  SOLV      2982            0.0000000000
      9059      2993  TIP3      H1            -15.7935791767        4.1715198197      -15.0304446671  SOLV      2982            0.0000000000
      9060      2993  TIP3      H2            -15.9905704902        5.0428319661      -13.8186661751  SOLV      2982            0.0000000000
      9061      2994  TIP3      OH2           -17.8264513249        3.5234114417       -6.2856780178  SOLV      2983            0.0000000000
      9062      2994  TIP3      H1            -18.4142546820        4.2235440140       -5.9274321743  SOLV      2983            0.0000000000
      9063      2994  TIP3      H2            -17.3992556822        3.9842260330       -7.0393804433  SOLV      2983            0.0000000000
      9064      2995  TIP3      OH2            -9.8706587856       -3.1120648552      -10.5002148333  SOLV      2984            0.0000000000
      9065      2995  TIP3      H1            -10.1255355360       -3.4410530042       -9.6255189832  SOLV      2984            0.0000000000
      9066      2995  TIP3      H2             -9.3543968269       -2.3149867895      -10.2640613137  SOLV      2984            0.0000000000
      9067      2996  TIP3      OH2           -20.1654743148       -3.1007236361       -6.3592681299  SOLV      2985            0.0000000000
      9068      2996  TIP3      H1            -19.5490445330       -2.3766934470       -6.1054353222  SOLV      2985            0.0000000000
      9069      2996  TIP3      H2            -19.6641742823       -3.4936038218       -7.1097399990  SOLV      2985            0.0000000000
      9070      2997  TIP3      OH2           -19.5170449064        5.5047440854       -5.2490846606  SOLV      2986            0.0000000000
      9071      2997  TIP3      H1            -19.7772819325        6.3687277275       -5.6271040990  SOLV      2986            0.0000000000
      9072      2997  TIP3      H2            -20.3222809160        5.3148208850       -4.7220804643  SOLV      2986            0.0000000000
      9073      2998  TIP3      OH2           -25.5535389244        2.3969964730      -12.8905580812  SOLV      2987            0.0000000000
      9074      2998  TIP3      H1            -26.0188792718        2.6442735597      -13.7090073259  SOLV      2987            0.0000000000
      9075      2998  TIP3      H2            -25.2465430898        3.2676855669      -12.5656185404  SOLV      2987            0.0000000000
      9076      2999  TIP3      OH2           -11.2169011834        7.5479444867      -10.5152877791  SOLV      2988            0.0000000000
      9077      2999  TIP3      H1            -12.1099420204        7.4430880518      -10.1119710269  SOLV      2988            0.0000000000
      9078      2999  TIP3      H2            -11.3228320099        8.4077071681      -10.9684601971  SOLV      2988            0.0000000000
      9079      3000  TIP3      OH2            -8.3626904181       -3.6047714755       -6.9412097476  SOLV      2989            0.0000000000
      9080      3000  TIP3      H1             -9.1752502797       -3.1670002252       -7.2333074559  SOLV      2989            0.0000000000
      9081      3000  TIP3      H2             -7.6791953853       -3.1860200489       -7.5052309225  SOLV      2989            0.0000000000
      9082      3001  TIP3      OH2           -15.4036381834       -7.0926397135       -7.0427666436  SOLV      2990            0.0000000000
      9083      3001  TIP3      H1            -15.5462988079       -8.0331218274       -6.8258843807  SOLV      2990            0.0000000000
      9084      3001  TIP3      H2            -16.1514454879       -6.6831521113       -6.5533600574  SOLV      2990            0.0000000000
      9085      3002  TIP3      OH2           -14.2480739411        7.9609140975      -13.7884907550  SOLV      2991            0.0000000000
      9086      3002  TIP3      H1            -13.7746790333        7.1149718560      -13.9778416119  SOLV      2991            0.0000000000
      9087      3002  TIP3      H2            -13.5928704675        8.5912601287      -14.1684323530  SOLV      2991            0.0000000000
      9088      3003  TIP3      OH2           -12.8382869636        5.7971527238      -14.6398605727  SOLV      2992            0.0000000000
      9089      3003  TIP3      H1            -12.7809549320        5.0318060337      -15.2467949989  SOLV      2992            0.0000000000
      9090      3003  TIP3      H2            -12.4603746609        5.4200606162      -13.8175679482  SOLV      2992            0.0000000000
      9091      3004  TIP3      OH2            -8.9664191280        6.6135196701       -7.0622699424  SOLV      2993            0.0000000000
      9092      3004  TIP3      H1             -9.0999286481        5.8413611432       -7.6542962099  SOLV      2993            0.0000000000
      9093      3004  TIP3      H2             -9.1503655138        7.3619059109       -7.6678659669  SOLV      2993            0.0000000000
      9094      3005  TIP3      OH2           -16.0519658719        0.5455631916      -14.5041439177  SOLV      2994            0.0000000000
      9095      3005  TIP3      H1            -16.8661248561        1.0873469983      -14.5942407325  SOLV      2994            0.0000000000
      9096      3005  TIP3      H2            -15.6324991886        0.7053181037      -15.3624820485  SOLV      2994            0.0000000000
      9097      3006  TIP3      OH2           -16.4496104631       -1.5742806850      -17.3554420257  SOLV      2995            0.0000000000
      9098      3006  TIP3      H1            -15.8274999370       -1.0571920701      -16.8186861018  SOLV      2995            0.0000000000
      9099      3006  TIP3      H2            -15.8322416397       -2.1527767707      -17.8478467469  SOLV      2995            0.0000000000
      9100      3007  TIP3      OH2            -7.0102909659        3.0526781755       -8.5932876221  SOLV      2996            0.0000000000
      9101      3007  TIP3      H1             -7.8634427662        3.5390942685       -8.5594078411  SOLV      2996            0.0000000000
      9102      3007  TIP3      H2             -6.7106833718        3.2936471658       -9.4964582811  SOLV      2996            0.0000000000
      9103      3008  TIP3      OH2           -12.5646385678        1.2999850718      -14.7564134942  SOLV      2997            0.0000000000
      9104      3008  TIP3      H1            -13.1156239448        1.5803721115      -13.9864848744  SOLV      2997            0.0000000000
      9105      3008  TIP3      H2            -11.7102397507        1.1238465300      -14.3098071691  SOLV      2997            0.0000000000
      9106      3009  TIP3      OH2           -10.2230416857        1.7546304249       -5.5553365808  SOLV      2998            0.0000000000
      9107      3009  TIP3      H1            -10.2550440201        2.5815236359       -5.0376528335  SOLV      2998            0.0000000000
      9108      3009  TIP3      H2            -11.0754796484        1.8065642021       -6.0301136474  SOLV      2998            0.0000000000
      9109      3010  TIP3      OH2           -20.2605389922        1.3335774683      -10.5739853413  SOLV      2999            0.0000000000
      9110      3010  TIP3      H1            -20.6402430022        0.7601936685      -11.2722199494  SOLV      2999            0.0000000000
      9111      3010  TIP3      H2            -19.4885087875        0.8105599585      -10.2718676849  SOLV      2999            0.0000000000
      9112      3011  TIP3      OH2           -18.9505693295        5.4632670065       -9.1198282361  SOLV      3000            0.0000000000
      9113      3011  TIP3      H1            -19.1423414836        5.1594728197      -10.0221715338  SOLV      3000            0.0000000000
      9114      3011  TIP3      H2            -18.0618929057        5.0830426506       -8.9591202377  SOLV      3000            0.0000000000
      9115      3012  TIP3      OH2           -18.8765237792        1.0705050566       -7.0215683416  SOLV      3001            0.0000000000
      9116      3012  TIP3      H1            -18.5678865841        0.8193318239       -7.9175186321  SOLV      3001            0.0000000000
      9117      3012  TIP3      H2            -18.4486797889        1.9421868819       -6.8831867375  SOLV      3001            0.0000000000
      9118      3013  TIP3      OH2           -13.6008798232        7.4603960586       -9.2646389499  SOLV      3002            0.0000000000
      9119      3013  TIP3      H1            -13.7411097797        8.2624154065       -8.7318931570  SOLV      3002            0.0000000000
      9120      3013  TIP3      H2            -13.7945022973        6.7352900519       -8.6385299907  SOLV      3002            0.0000000000
      9121      3014  TIP3      OH2           -17.4812550236        6.6560237833       -3.7932322802  SOLV      3003            0.0000000000
      9122      3014  TIP3      H1            -18.1182453364        7.2649398841       -3.3611983913  SOLV      3003            0.0000000000
      9123      3014  TIP3      H2            -18.1001068994        6.1147619078       -4.3276861258  SOLV      3003            0.0000000000
      9124      3015  TIP3      OH2           -14.0990569342        0.0807929099      -16.6403354166  SOLV      3004            0.0000000000
      9125      3015  TIP3      H1            -13.5468501457        0.5683868247      -15.9840696483  SOLV      3004            0.0000000000
      9126      3015  TIP3      H2            -14.0085606244        0.6588035858      -17.4138497097  SOLV      3004            0.0000000000
      9127      3016  TIP3      OH2           -19.9324670566        2.1709980690       -2.7198405539  SOLV      3005            0.0000000000
      9128      3016  TIP3      H1            -19.9129436370        3.0772651186       -2.3553167531  SOLV      3005            0.0000000000
      9129      3016  TIP3      H2            -20.8841022277        1.9605841266       -2.6285580385  SOLV      3005            0.0000000000
      9130      3017  TIP3      OH2           -16.7083221626        6.7552694217      -13.7095947735  SOLV      3006            0.0000000000
      9131      3017  TIP3      H1            -15.8610858180        7.2436081693      -13.6766369118  SOLV      3006            0.0000000000
      9132      3017  TIP3      H2            -17.2856482262        7.3749229394      -14.1732968031  SOLV      3006            0.0000000000
      9133      3018  TIP3      OH2           -19.5614518512        8.2988415272       -2.9383313794  SOLV      3007            0.0000000000
      9134      3018  TIP3      H1            -19.8929814428        8.3550128543       -3.8564092512  SOLV      3007            0.0000000000
      9135      3018  TIP3      H2            -20.3790957979        8.0835671106       -2.4367551717  SOLV      3007            0.0000000000
      9136      3019  TIP3      OH2            -9.0250761714       -7.6501575003      -16.0122662000  SOLV      3008            0.0000000000
      9137      3019  TIP3      H1             -9.8331426582       -7.4143262391      -15.5103538763  SOLV      3008            0.0000000000
      9138      3019  TIP3      H2             -8.8565116280       -6.8141467112      -16.4952192450  SOLV      3008            0.0000000000
      9139      3020  TIP3      OH2           -21.5571701520       -0.2137893095      -12.6050353407  SOLV      3009            0.0000000000
      9140      3020  TIP3      H1            -22.2510618515        0.2366249435      -13.1334408674  SOLV      3009            0.0000000000
      9141      3020  TIP3      H2            -21.9868954976       -1.0505133920      -12.3998005070  SOLV      3009            0.0000000000
      9142      3021  TIP3      OH2           -11.0102637110        6.0770352670      -20.4782400304  SOLV      3010            0.0000000000
      9143      3021  TIP3      H1            -10.8673932902        7.0230198793      -20.6814332275  SOLV      3010            0.0000000000
      9144      3021  TIP3      H2            -10.1297454603        5.6961828158      -20.6598023758  SOLV      3010            0.0000000000
      9145      3022  TIP3      OH2           -23.7702738162        3.6649167601       -3.4691960126  SOLV      3011            0.0000000000
      9146      3022  TIP3      H1            -24.4678023937        3.5046660602       -4.1444642414  SOLV      3011            0.0000000000
      9147      3022  TIP3      H2            -23.4148986803        2.7682274877       -3.3147712838  SOLV      3011            0.0000000000
      9148      3023  TIP3      OH2           -25.2247031136        5.6292351983       -7.2576435856  SOLV      3012            0.0000000000
      9149      3023  TIP3      H1            -24.2715923010        5.4734546558       -7.2957463743  SOLV      3012            0.0000000000
      9150      3023  TIP3      H2            -25.2790105572        6.3553659930       -6.6185847700  SOLV      3012            0.0000000000
      9151      3024  TIP3      OH2            -6.6002184782       10.1113995521       -6.5625793963  SOLV      3013            0.0000000000
      9152      3024  TIP3      H1             -6.6037029837        9.1465002853       -6.4130072541  SOLV      3013            0.0000000000
      9153      3024  TIP3      H2             -7.4343920628       10.3599191092       -6.1049398064  SOLV      3013            0.0000000000
      9154      3025  TIP3      OH2           -15.5231871809        7.9244016626       -5.2177641333  SOLV      3014            0.0000000000
      9155      3025  TIP3      H1            -15.5773141911        8.8530713339       -4.9061622186  SOLV      3014            0.0000000000
      9156      3025  TIP3      H2            -16.2478525126        7.5123773006       -4.6968559174  SOLV      3014            0.0000000000
      9157      3026  TIP3      OH2           -17.8689939778        9.1277940055      -15.8086865529  SOLV      3015            0.0000000000
      9158      3026  TIP3      H1            -18.3138407262        8.9079022722      -16.6483303750  SOLV      3015            0.0000000000
      9159      3026  TIP3      H2            -18.2829376477        9.9618857008      -15.5563470898  SOLV      3015            0.0000000000
      9160      3027  TIP3      OH2           -23.5357521619        7.7813945594      -11.8455306432  SOLV      3016            0.0000000000
      9161      3027  TIP3      H1            -23.0780493467        7.6530415215      -10.9854854071  SOLV      3016            0.0000000000
      9162      3027  TIP3      H2            -24.0112536521        6.9371263110      -11.9255680787  SOLV      3016            0.0000000000
      9163      3028  TIP3      OH2           -15.8762591473        8.1792170345      -19.3780635006  SOLV      3017            0.0000000000
      9164      3028  TIP3      H1            -15.2838601740        7.4627606150      -19.6889194377  SOLV      3017            0.0000000000
      9165      3028  TIP3      H2            -15.5427602168        8.3226794480      -18.4658439231  SOLV      3017            0.0000000000
      9166      3029  TIP3      OH2           -15.3449931731        8.7127846814      -16.6916476053  SOLV      3018            0.0000000000
      9167      3029  TIP3      H1            -16.2299343483        8.8066345103      -16.2717593438  SOLV      3018            0.0000000000
      9168      3029  TIP3      H2            -14.8280928154        8.3536240689      -15.9523731898  SOLV      3018            0.0000000000
      9169      3030  TIP3      OH2            -7.7550482797        1.3975194349       -4.0440846542  SOLV      3019            0.0000000000
      9170      3030  TIP3      H1             -8.6172304476        1.4588533730       -4.4829605275  SOLV      3019            0.0000000000
      9171      3030  TIP3      H2             -7.5180321069        0.4594258405       -4.2146273622  SOLV      3019            0.0000000000
      9172      3031  TIP3      OH2           -21.7408352787        5.4862266271       -3.6398940270  SOLV      3020            0.0000000000
      9173      3031  TIP3      H1            -21.2491610989        5.2962860115       -2.8175779212  SOLV      3020            0.0000000000
      9174      3031  TIP3      H2            -22.4862056552        4.8509166940       -3.5790845816  SOLV      3020            0.0000000000
      9175      3032  TIP3      OH2           -17.7357637679       -6.3083360170       -5.7058587431  SOLV      3021            0.0000000000
      9176      3032  TIP3      H1            -18.6212379890       -6.5970970752       -6.0105429211  SOLV      3021            0.0000000000
      9177      3032  TIP3      H2            -17.9945983282       -5.5040357867       -5.2119636383  SOLV      3021            0.0000000000
      9178      3033  TIP3      OH2           -12.3311869461       -5.1932617576       -3.7868361619  SOLV      3022            0.0000000000
      9179      3033  TIP3      H1            -11.6331447539       -5.4318406111       -3.1408646286  SOLV      3022            0.0000000000
      9180      3033  TIP3      H2            -13.1534162031       -5.3367763296       -3.2763489878  SOLV      3022            0.0000000000
      9181      3034  TIP3      OH2           -10.1200740394       -0.9337109348       -4.6097379622  SOLV      3023            0.0000000000
      9182      3034  TIP3      H1            -10.5591421926       -0.9419888865       -3.7281876813  SOLV      3023            0.0000000000
      9183      3034  TIP3      H2            -10.2889381707       -0.0261311092       -4.9234267802  SOLV      3023            0.0000000000
      9184      3035  TIP3      OH2           -16.2801314211       -5.8486036890      -16.0093717096  SOLV      3024            0.0000000000
      9185      3035  TIP3      H1            -16.6248827473       -5.8742333130      -15.0937493628  SOLV      3024            0.0000000000
      9186      3035  TIP3      H2            -16.6978787740       -6.6570215897      -16.3646242747  SOLV      3024            0.0000000000
      9187      3036  TIP3      OH2           -18.4049737557       -1.1465852938       -5.5428283081  SOLV      3025            0.0000000000
      9188      3036  TIP3      H1            -18.9085301029       -0.9298514822       -4.7314609233  SOLV      3025            0.0000000000
      9189      3036  TIP3      H2            -18.5496524072       -0.3300358449       -6.0737828475  SOLV      3025            0.0000000000
      9190      3037  TIP3      OH2           -19.5614547594       -2.2755399898      -10.4232774693  SOLV      3026            0.0000000000
      9191      3037  TIP3      H1            -20.4876168977       -2.5265315980      -10.2168187844  SOLV      3026            0.0000000000
      9192      3037  TIP3      H2            -19.4646528983       -2.6976214304      -11.3062132057  SOLV      3026            0.0000000000
      9193      3038  TIP3      OH2           -14.6824417273       -1.4413062742      -13.1300312502  SOLV      3027            0.0000000000
      9194      3038  TIP3      H1            -15.1837069302       -0.7251944223      -13.5798152443  SOLV      3027            0.0000000000
      9195      3038  TIP3      H2            -14.1229803295       -1.7722946206      -13.8590226576  SOLV      3027            0.0000000000
      9196      3039  TIP3      OH2           -12.9595831312        1.3125002370       -2.3022011641  SOLV      3028            0.0000000000
      9197      3039  TIP3      H1            -13.1854547207        0.5935635968       -1.6662136503  SOLV      3028            0.0000000000
      9198      3039  TIP3      H2            -12.0190925227        1.4508707131       -2.0679099256  SOLV      3028            0.0000000000
      9199      3040  TIP3      OH2           -13.1262673732       -1.1848726603      -10.7653544659  SOLV      3029            0.0000000000
      9200      3040  TIP3      H1            -13.7576000995       -0.8924192167      -11.4534932131  SOLV      3029            0.0000000000
      9201      3040  TIP3      H2            -12.7713131058       -1.9738037225      -11.2240937697  SOLV      3029            0.0000000000
      9202      3041  TIP3      OH2           -20.2145040368       -0.8688512725       -3.4743078870  SOLV      3030            0.0000000000
      9203      3041  TIP3      H1            -19.8553314726       -0.2531726440       -2.8183312471  SOLV      3030            0.0000000000
      9204      3041  TIP3      H2            -20.3223657164       -1.6888813533       -2.9537330501  SOLV      3030            0.0000000000
      9205      3042  TIP3      OH2           -19.7470906071       -6.0987151229      -16.3724147665  SOLV      3031            0.0000000000
      9206      3042  TIP3      H1            -19.8405061993       -6.0770072597      -15.3984901157  SOLV      3031            0.0000000000
      9207      3042  TIP3      H2            -20.4840098463       -5.5099577853      -16.6319193306  SOLV      3031            0.0000000000
      9208      3043  TIP3      OH2           -24.2419800661       -5.7419324652       -7.6494316248  SOLV      3032            0.0000000000
      9209      3043  TIP3      H1            -23.5630027090       -5.3384059512       -7.0690515278  SOLV      3032            0.0000000000
      9210      3043  TIP3      H2            -23.7692382255       -5.8652880782       -8.4804672722  SOLV      3032            0.0000000000
      9211      3044  TIP3      OH2           -24.6648001875       -5.8667698756      -12.4987321468  SOLV      3033            0.0000000000
      9212      3044  TIP3      H1            -24.1988725522       -5.4814037378      -13.2705807729  SOLV      3033            0.0000000000
      9213      3044  TIP3      H2            -25.2667854649       -5.1217295145      -12.2890501479  SOLV      3033            0.0000000000
      9214      3045  TIP3      OH2           -13.0310028642        1.2810146834       -6.5461554521  SOLV      3034            0.0000000000
      9215      3045  TIP3      H1            -12.6832342551        0.5774510424       -7.1429453199  SOLV      3034            0.0000000000
      9216      3045  TIP3      H2            -13.3224521859        0.7291389703       -5.7883255039  SOLV      3034            0.0000000000
      9217      3046  TIP3      OH2           -16.2590584126       -4.1124333077       -9.8373983916  SOLV      3035            0.0000000000
      9218      3046  TIP3      H1            -17.0607683062       -4.0886624449       -9.2774949786  SOLV      3035            0.0000000000
      9219      3046  TIP3      H2            -15.5494771584       -4.1508693887       -9.1723079601  SOLV      3035            0.0000000000
      9220      3047  TIP3      OH2           -21.9344747094       -3.4757139171       -9.7551578140  SOLV      3036            0.0000000000
      9221      3047  TIP3      H1            -22.8796420868       -3.3891030087      -10.0328760886  SOLV      3036            0.0000000000
      9222      3047  TIP3      H2            -21.7204883489       -4.3977099159       -9.9856434068  SOLV      3036            0.0000000000
      9223      3048  TIP3      OH2           -19.3228765530       -3.5855553751      -12.8124647689  SOLV      3037            0.0000000000
      9224      3048  TIP3      H1            -18.3897662012       -3.3952387757      -13.0257416937  SOLV      3037            0.0000000000
      9225      3048  TIP3      H2            -19.7944003524       -3.3614673483      -13.6495151713  SOLV      3037            0.0000000000
      9226      3049  TIP3      OH2           -11.4179487463       -3.2870094893       -7.8372583130  SOLV      3038            0.0000000000
      9227      3049  TIP3      H1            -11.6643779449       -3.1682039644       -6.8897406578  SOLV      3038            0.0000000000
      9228      3049  TIP3      H2            -12.1240398298       -3.8893367150       -8.1243040987  SOLV      3038            0.0000000000
      9229      3050  TIP3      OH2           -20.7629066730       -3.2493468192      -15.0815457026  SOLV      3039            0.0000000000
      9230      3050  TIP3      H1            -21.4971099700       -3.6453404539      -15.5820297117  SOLV      3039            0.0000000000
      9231      3050  TIP3      H2            -20.2527524627       -2.8304903975      -15.8074318542  SOLV      3039            0.0000000000
      9232      3051  TIP3      OH2            -9.6328521824       13.5904283288       -5.5715274849  SOLV      3040            0.0000000000
      9233      3051  TIP3      H1             -9.6624308476       13.8225587020       -6.5171684929  SOLV      3040            0.0000000000
      9234      3051  TIP3      H2             -8.8207466049       14.0505221614       -5.2813360634  SOLV      3040            0.0000000000
      9235      3052  TIP3      OH2           -20.1216799086        4.6922687724       -1.4041622227  SOLV      3041            0.0000000000
      9236      3052  TIP3      H1            -19.3157326785        4.9721837053       -0.9297643703  SOLV      3041            0.0000000000
      9237      3052  TIP3      H2            -20.7650571561        4.6698267192       -0.6721099219  SOLV      3041            0.0000000000
      9238      3053  TIP3      OH2           -15.4976959257       -0.7723115164       -8.8293679233  SOLV      3042            0.0000000000
      9239      3053  TIP3      H1            -14.7228658094       -1.1387090037       -9.2807182155  SOLV      3042            0.0000000000
      9240      3053  TIP3      H2            -15.4589961614       -1.2091251950       -7.9566109975  SOLV      3042            0.0000000000
      9241      3054  TIP3      OH2           -20.3097982827       -5.9110498040       -9.9917395021  SOLV      3043            0.0000000000
      9242      3054  TIP3      H1            -20.6759464620       -6.6702823042       -9.4862282136  SOLV      3043            0.0000000000
      9243      3054  TIP3      H2            -19.8265267001       -6.3614013001      -10.6961049639  SOLV      3043            0.0000000000
      9244      3055  TIP3      OH2           -15.7077249115       -1.7397463946       -5.9843741034  SOLV      3044            0.0000000000
      9245      3055  TIP3      H1            -16.6095017301       -1.4077938354       -5.8002349689  SOLV      3044            0.0000000000
      9246      3055  TIP3      H2            -15.1399138928       -1.1473078505       -5.4534922716  SOLV      3044            0.0000000000
      9247      3056  TIP3      OH2           -18.3753518400        2.0241190144      -14.9379641387  SOLV      3045            0.0000000000
      9248      3056  TIP3      H1            -19.1229618446        1.4052028122      -15.0760986698  SOLV      3045            0.0000000000
      9249      3056  TIP3      H2            -18.5965542410        2.3960313340      -14.0480198696  SOLV      3045            0.0000000000
      9250      3057  TIP3      OH2            -9.3739865883        4.4599639306       -8.7369308643  SOLV      3046            0.0000000000
      9251      3057  TIP3      H1             -9.1461755405        4.9823693128       -9.5341422667  SOLV      3046            0.0000000000
      9252      3057  TIP3      H2            -10.2130465546        4.0238527618       -9.0059399510  SOLV      3046            0.0000000000
      9253      3058  TIP3      OH2           -13.7815591483       -4.7902103181      -16.3836140812  SOLV      3047            0.0000000000
      9254      3058  TIP3      H1            -14.7373284717       -4.9954361002      -16.2560531877  SOLV      3047            0.0000000000
      9255      3058  TIP3      H2            -13.7103436235       -3.8600795620      -16.0868074512  SOLV      3047            0.0000000000
      9256      3059  TIP3      OH2           -14.3901041888        5.2698960768       -5.0136428580  SOLV      3048            0.0000000000
      9257      3059  TIP3      H1            -14.0018311306        5.1088186505       -4.1450688407  SOLV      3048            0.0000000000
      9258      3059  TIP3      H2            -14.7320764174        6.1772717434       -4.9390965459  SOLV      3048            0.0000000000
      9259      3060  TIP3      OH2           -13.1065728657       -2.2776955662      -15.3298829187  SOLV      3049            0.0000000000
      9260      3060  TIP3      H1            -12.1514737123       -2.2202711631      -15.1308188587  SOLV      3049            0.0000000000
      9261      3060  TIP3      H2            -13.2581177280       -1.4734990808      -15.8632697351  SOLV      3049            0.0000000000
      9262      3061  TIP3      OH2           -21.3590530871        2.4067772320       -8.2515080704  SOLV      3050            0.0000000000
      9263      3061  TIP3      H1            -21.0194905361        2.0644409702       -9.1039972301  SOLV      3050            0.0000000000
      9264      3061  TIP3      H2            -21.0112703918        1.7578245498       -7.6243422899  SOLV      3050            0.0000000000
      9265      3062  TIP3      OH2           -16.8959784981        3.5544287222      -16.6605138335  SOLV      3051            0.0000000000
      9266      3062  TIP3      H1            -17.3875225890        4.4073634516      -16.6835681590  SOLV      3051            0.0000000000
      9267      3062  TIP3      H2            -17.4490080881        3.0323728577      -16.0428479072  SOLV      3051            0.0000000000
      9268      3063  TIP3      OH2           -22.5913510745        1.4954243761       -2.0912500400  SOLV      3052            0.0000000000
      9269      3063  TIP3      H1            -22.4895330974        1.2996773017       -1.1416353525  SOLV      3052            0.0000000000
      9270      3063  TIP3      H2            -23.3033466306        0.8787161178       -2.3417051103  SOLV      3052            0.0000000000
      9271      3064  TIP3      OH2           -15.3167627476        2.7017658779       -1.9251820003  SOLV      3053            0.0000000000
      9272      3064  TIP3      H1            -15.9262826856        2.0811794135       -2.3546089821  SOLV      3053            0.0000000000
      9273      3064  TIP3      H2            -14.4510753785        2.3230186436       -2.1982434268  SOLV      3053            0.0000000000
      9274      3065  TIP3      OH2           -12.7686067876        7.8877858618       -6.0173598011  SOLV      3054            0.0000000000
      9275      3065  TIP3      H1            -13.7346757143        7.8736291413       -5.8972157502  SOLV      3054            0.0000000000
      9276      3065  TIP3      H2            -12.4970643286        8.4250502602       -5.2449516273  SOLV      3054            0.0000000000
      9277      3066  TIP3      OH2            -8.6975515497       -1.3530972073      -16.9725074231  SOLV      3055            0.0000000000
      9278      3066  TIP3      H1             -9.3070712372       -1.7922445812      -17.6118626956  SOLV      3055            0.0000000000
      9279      3066  TIP3      H2             -8.7396745771       -0.4502661809      -17.3593161803  SOLV      3055            0.0000000000
      9280      3067  TIP3      OH2            -6.4569741026        7.2183953788       -6.1799197215  SOLV      3056            0.0000000000
      9281      3067  TIP3      H1             -7.4335739085        7.1326372614       -6.2502272841  SOLV      3056            0.0000000000
      9282      3067  TIP3      H2             -6.1981800440        6.9024844135       -7.0751262786  SOLV      3056            0.0000000000
      9283      3068  TIP3      OH2           -11.6033576800        6.7731460277      -17.8491536942  SOLV      3057            0.0000000000
      9284      3068  TIP3      H1            -11.9860562679        6.0676609822      -17.3078546102  SOLV      3057            0.0000000000
      9285      3068  TIP3      H2            -11.5101450042        6.3470510741      -18.7240800642  SOLV      3057            0.0000000000
      9286      3069  TIP3      OH2           -11.7026811469        3.1006842319       -9.5723103311  SOLV      3058            0.0000000000
      9287      3069  TIP3      H1            -12.6384929417        2.8587733755       -9.4286103788  SOLV      3058            0.0000000000
      9288      3069  TIP3      H2            -11.3748233625        2.2909160203      -10.0115929946  SOLV      3058            0.0000000000
      9289      3070  TIP3      OH2           -20.3736363129        5.3981479523      -11.9394588415  SOLV      3059            0.0000000000
      9290      3070  TIP3      H1            -20.4117953667        6.1855477618      -12.5167693830  SOLV      3059            0.0000000000
      9291      3070  TIP3      H2            -21.3065134192        5.1709163367      -11.8617571059  SOLV      3059            0.0000000000
      9292      3071  TIP3      OH2           -24.7299488621       -1.6153380198      -14.9195886092  SOLV      3060            0.0000000000
      9293      3071  TIP3      H1            -24.3050526929       -0.7572851362      -14.7041991565  SOLV      3060            0.0000000000
      9294      3071  TIP3      H2            -25.5028082948       -1.5917896984      -14.3098653661  SOLV      3060            0.0000000000
      9295      3072  TIP3      OH2           -19.1386875649        2.9811781420      -12.5508957633  SOLV      3061            0.0000000000
      9296      3072  TIP3      H1            -19.4234915959        3.8948610080      -12.3518111978  SOLV      3061            0.0000000000
      9297      3072  TIP3      H2            -19.4803620927        2.4935831746      -11.7801412831  SOLV      3061            0.0000000000
      9298      3073  TIP3      OH2           -17.6988976711        8.7949549306       -7.3220390916  SOLV      3062            0.0000000000
      9299      3073  TIP3      H1            -17.2754769595        9.5237717246       -7.8262772251  SOLV      3062            0.0000000000
      9300      3073  TIP3      H2            -16.9267689947        8.4058222429       -6.8835230115  SOLV      3062            0.0000000000
      9301      3074  TIP3      OH2           -21.2107066714        7.7934930858      -13.4745214318  SOLV      3063            0.0000000000
      9302      3074  TIP3      H1            -22.0544728332        7.9096910456      -12.9959524802  SOLV      3063            0.0000000000
      9303      3074  TIP3      H2            -20.8682009126        8.7139762886      -13.4784798042  SOLV      3063            0.0000000000
      9304      3075  TIP3      OH2           -13.8755082696        5.1350876008       -7.6887799913  SOLV      3064            0.0000000000
      9305      3075  TIP3      H1            -13.9906471967        5.1082068442       -6.7118896302  SOLV      3064            0.0000000000
      9306      3075  TIP3      H2            -13.0767433125        4.6022548216       -7.8017218232  SOLV      3064            0.0000000000
      9307      3076  TIP3      OH2           -11.3572169616       10.4485833112       -7.2051488292  SOLV      3065            0.0000000000
      9308      3076  TIP3      H1            -12.1693283304        9.9068464148       -7.2706778063  SOLV      3065            0.0000000000
      9309      3076  TIP3      H2            -11.5107153921       11.0940979631       -7.9296683129  SOLV      3065            0.0000000000
      9310      3077  TIP3      OH2           -10.6655014564        8.8357135574      -20.7174183430  SOLV      3066            0.0000000000
      9311      3077  TIP3      H1            -10.3037071456        9.6350044520      -21.1350113760  SOLV      3066            0.0000000000
      9312      3077  TIP3      H2            -11.4932211660        9.2111722846      -20.3508974871  SOLV      3066            0.0000000000
      9313      3078  TIP3      OH2           -20.5218697184       -3.4292174165       -2.0504108624  SOLV      3067            0.0000000000
      9314      3078  TIP3      H1            -21.4898842970       -3.4303401060       -1.9286339024  SOLV      3067            0.0000000000
      9315      3078  TIP3      H2            -20.2230709382       -3.9554524257       -1.2905145287  SOLV      3067            0.0000000000
      9316      3079  TIP3      OH2           -12.3035108968        3.6399836680      -16.3228355226  SOLV      3068            0.0000000000
      9317      3079  TIP3      H1            -12.4922171813        2.8371282451      -15.8048935095  SOLV      3068            0.0000000000
      9318      3079  TIP3      H2            -11.4201387338        3.4323111771      -16.6842669633  SOLV      3068            0.0000000000
      9319      3080  TIP3      OH2           -23.3434367940        7.3995431481       -5.7246941956  SOLV      3069            0.0000000000
      9320      3080  TIP3      H1            -22.7988488518        6.6673554455       -5.3910254236  SOLV      3069            0.0000000000
      9321      3080  TIP3      H2            -23.0200269824        8.1338141265       -5.1878516714  SOLV      3069            0.0000000000
      9322      3081  TIP3      OH2           -20.5741196805        3.9781469342      -18.8514712917  SOLV      3070            0.0000000000
      9323      3081  TIP3      H1            -20.0456184741        3.1954002323      -19.0923397306  SOLV      3070            0.0000000000
      9324      3081  TIP3      H2            -20.7418333389        3.8051579083      -17.9036672347  SOLV      3070            0.0000000000
      9325      3082  TIP3      OH2           -21.0181907722        3.9354223673      -16.1026657750  SOLV      3071            0.0000000000
      9326      3082  TIP3      H1            -20.2139489353        3.6881351701      -15.6252780228  SOLV      3071            0.0000000000
      9327      3082  TIP3      H2            -20.9803735560        4.9179852728      -16.0584962454  SOLV      3071            0.0000000000
      9328      3083  TIP3      OH2           -23.6554579546        0.8289721502      -14.1118259925  SOLV      3072            0.0000000000
      9329      3083  TIP3      H1            -24.3051034402        1.2946560548      -13.5409731040  SOLV      3072            0.0000000000
      9330      3083  TIP3      H2            -23.5271909188        1.5082097718      -14.8030326089  SOLV      3072            0.0000000000
      9331      3084  TIP3      OH2           -12.0791162456       -2.8401371429       -5.2284210333  SOLV      3073            0.0000000000
      9332      3084  TIP3      H1            -11.3013374527       -2.3812526164       -4.8600150184  SOLV      3073            0.0000000000
      9333      3084  TIP3      H2            -12.1655476268       -3.6227296997       -4.6422814391  SOLV      3073            0.0000000000
      9334      3085  TIP3      OH2           -13.2454507904       -5.3357574345      -13.4896063755  SOLV      3074            0.0000000000
      9335      3085  TIP3      H1            -13.4039954251       -5.0784852750      -14.4149751981  SOLV      3074            0.0000000000
      9336      3085  TIP3      H2            -12.8633480516       -4.5118589176      -13.1117834448  SOLV      3074            0.0000000000
      9337      3086  TIP3      OH2           -18.3431462815        5.8429709802      -16.6690686604  SOLV      3075            0.0000000000
      9338      3086  TIP3      H1            -19.2080603654        6.1254581325      -16.3116312818  SOLV      3075            0.0000000000
      9339      3086  TIP3      H2            -18.1611531845        6.5675143355      -17.2836151530  SOLV      3075            0.0000000000
      9340      3087  TIP3      OH2           -16.4855844444       -3.4552286767      -12.5139469576  SOLV      3076            0.0000000000
      9341      3087  TIP3      H1            -15.8552119061       -2.7189543071      -12.6706884805  SOLV      3076            0.0000000000
      9342      3087  TIP3      H2            -16.4111614590       -3.5645412839      -11.5403065217  SOLV      3076            0.0000000000
      9343      3088  TIP3      OH2           -13.7185353132       -0.3223527190       -4.4578719436  SOLV      3077            0.0000000000
      9344      3088  TIP3      H1            -13.4766288729        0.2052405957       -3.6672703272  SOLV      3077            0.0000000000
      9345      3088  TIP3      H2            -13.2030906123       -1.1355292949       -4.3253181757  SOLV      3077            0.0000000000
      9346      3089  TIP3      OH2           -15.0301950439       -6.2958459477      -11.5327178968  SOLV      3078            0.0000000000
      9347      3089  TIP3      H1            -15.0809168408       -5.5383216714      -10.9194114890  SOLV      3078            0.0000000000
      9348      3089  TIP3      H2            -14.3916856980       -5.9477242686      -12.1962692225  SOLV      3078            0.0000000000
      9349      3090  TIP3      OH2           -20.8585004195        6.6635269148      -15.9703244408  SOLV      3079            0.0000000000
      9350      3090  TIP3      H1            -21.1885002214        7.3626118742      -16.5750025267  SOLV      3079            0.0000000000
      9351      3090  TIP3      H2            -21.0215218051        7.0752229263      -15.0928619408  SOLV      3079            0.0000000000
      9352      3091  TIP3      OH2           -19.8749885962       -6.2030770098      -13.6132539042  SOLV      3080            0.0000000000
      9353      3091  TIP3      H1            -19.9186765323       -5.3036483377      -13.2281744370  SOLV      3080            0.0000000000
      9354      3091  TIP3      H2            -18.9110090357       -6.3600395909      -13.5271852936  SOLV      3080            0.0000000000
      9355      3092  TIP3      OH2            -7.3674412523       -1.1914563780       -4.8023223685  SOLV      3081            0.0000000000
      9356      3092  TIP3      H1             -8.3385698696       -1.3001539454       -4.7425634386  SOLV      3081            0.0000000000
      9357      3092  TIP3      H2             -7.0878426313       -2.0629516370       -5.1214260133  SOLV      3081            0.0000000000
      9358      3093  TIP3      OH2           -10.8448763476        0.6498408066      -10.7545565586  SOLV      3082            0.0000000000
      9359      3093  TIP3      H1            -11.6093012800        0.0664990604      -10.6059517799  SOLV      3082            0.0000000000
      9360      3093  TIP3      H2            -10.1316441091        0.1832956163      -10.2673823555  SOLV      3082            0.0000000000
      9361      3094  TIP3      OH2           -23.6872959482        2.9011725102      -16.0645501137  SOLV      3083            0.0000000000
      9362      3094  TIP3      H1            -22.9386960862        3.5220973477      -15.9632825934  SOLV      3083            0.0000000000
      9363      3094  TIP3      H2            -23.2923062238        2.3062596143      -16.7398257148  SOLV      3083            0.0000000000
      9364      3095  TIP3      OH2           -24.3022007074       -4.3204587331      -14.7468942948  SOLV      3084            0.0000000000
      9365      3095  TIP3      H1            -24.2133273569       -3.3459151393      -14.7400858078  SOLV      3084            0.0000000000
      9366      3095  TIP3      H2            -25.1942058891       -4.4198966045      -15.0962809102  SOLV      3084            0.0000000000
      9367      3096  TIP3      OH2           -11.1243133346       10.2556514978      -11.2624285577  SOLV      3085            0.0000000000
      9368      3096  TIP3      H1            -11.5470512079       10.7147052607      -12.0247239179  SOLV      3085            0.0000000000
      9369      3096  TIP3      H2            -10.1801539233       10.4219342927      -11.4796554009  SOLV      3085            0.0000000000
      9370      3097  TIP3      OH2           -20.3801658720       -7.1057998371       -6.0319388898  SOLV      3086            0.0000000000
      9371      3097  TIP3      H1            -20.6796156381       -7.4549191702       -6.8970326959  SOLV      3086            0.0000000000
      9372      3097  TIP3      H2            -20.4859601822       -7.8841157882       -5.4483241333  SOLV      3086            0.0000000000
      9373      3098  TIP3      OH2           -25.0337916972        5.1545933396      -12.2838501656  SOLV      3087            0.0000000000
      9374      3098  TIP3      H1            -25.6628092935        5.4286213750      -11.6026843623  SOLV      3087            0.0000000000
      9375      3098  TIP3      H2            -25.4255667870        5.5588415603      -13.0968644373  SOLV      3087            0.0000000000
      9376      3099  TIP3      OH2           -23.4012650696       10.5713297026       -1.4659057520  SOLV      3088            0.0000000000
      9377      3099  TIP3      H1            -22.5277253256       10.5664313711       -1.0140699157  SOLV      3088            0.0000000000
      9378      3099  TIP3      H2            -23.5967521683        9.6197478392       -1.4965120557  SOLV      3088            0.0000000000
      9379      3100  TIP3      OH2           -18.6607153819       10.0629288766       -0.9987988051  SOLV      3089            0.0000000000
      9380      3100  TIP3      H1            -17.7031300626        9.9236039948       -0.9901497789  SOLV      3089            0.0000000000
      9381      3100  TIP3      H2            -18.9243095540        9.4626651257       -1.7274314999  SOLV      3089            0.0000000000
      9382      3101  TIP3      OH2           -18.7638174130        5.8543916124      -19.8161517228  SOLV      3090            0.0000000000
      9383      3101  TIP3      H1            -19.3205388713        5.1598335859      -19.3973594092  SOLV      3090            0.0000000000
      9384      3101  TIP3      H2            -18.0096930392        5.3078970334      -20.1201656320  SOLV      3090            0.0000000000
      9385      3102  TIP3      OH2           -12.2781658853        9.2432870109       -3.6501020673  SOLV      3091            0.0000000000
      9386      3102  TIP3      H1            -12.3227019911        8.5264860029       -2.9748524021  SOLV      3091            0.0000000000
      9387      3102  TIP3      H2            -11.4793135440        9.7338763194       -3.3761147902  SOLV      3091            0.0000000000
      9388      3103  TIP3      OH2           -14.3282925236        6.1587466673      -20.6632897674  SOLV      3092            0.0000000000
      9389      3103  TIP3      H1            -13.8589416070        5.4475998654      -20.2028201386  SOLV      3092            0.0000000000
      9390      3103  TIP3      H2            -13.7809245471        6.2434433683      -21.4651878367  SOLV      3092            0.0000000000
      9391      3104  TIP3      OH2           -22.1222733761        4.5449766666        0.5562012151  SOLV      3093            0.0000000000
      9392      3104  TIP3      H1            -21.9759615788        3.5782777816        0.5264783780  SOLV      3093            0.0000000000
      9393      3104  TIP3      H2            -22.9768946840        4.6184813773        0.0728006615  SOLV      3093            0.0000000000
      9394      3105  TIP3      OH2           -22.3559223640        1.0318003731      -17.4789574662  SOLV      3094            0.0000000000
      9395      3105  TIP3      H1            -21.7521537884        0.7801000391      -16.7559029579  SOLV      3094            0.0000000000
      9396      3105  TIP3      H2            -21.7079309541        1.0966373072      -18.2196002347  SOLV      3094            0.0000000000
      9397      3106  TIP3      OH2           -16.1092034244        5.4411419190       -1.7111012834  SOLV      3095            0.0000000000
      9398      3106  TIP3      H1            -16.4679124230        5.6753630116       -2.5925199954  SOLV      3095            0.0000000000
      9399      3106  TIP3      H2            -15.7675826729        4.5322215173       -1.8573393182  SOLV      3095            0.0000000000
      9400      3107  TIP3      OH2           -17.7641764770        3.0069846492      -19.3061358683  SOLV      3096            0.0000000000
      9401      3107  TIP3      H1            -17.2703849934        3.1546865894      -18.4762969446  SOLV      3096            0.0000000000
      9402      3107  TIP3      H2            -17.4997547701        2.0936180585      -19.5229026791  SOLV      3096            0.0000000000
      9403      3108  TIP3      OH2           -11.1336793761        5.5852860021       -5.6519159785  SOLV      3097            0.0000000000
      9404      3108  TIP3      H1            -10.3554060988        5.9796116910       -6.0908160815  SOLV      3097            0.0000000000
      9405      3108  TIP3      H2            -11.8084103777        6.2678411663       -5.8384644768  SOLV      3097            0.0000000000
      9406      3109  TIP3      OH2           -20.8851995474        1.9935617097        0.3996281099  SOLV      3098            0.0000000000
      9407      3109  TIP3      H1            -20.1618439639        1.4884039328        0.0002812422  SOLV      3098            0.0000000000
      9408      3109  TIP3      H2            -20.5311313584        2.2063170887        1.2754326009  SOLV      3098            0.0000000000
      9409      3110  TIP3      OH2           -20.3575897726        0.1238591819      -15.3441318302  SOLV      3099            0.0000000000
      9410      3110  TIP3      H1            -20.6079233273       -0.2616697200      -14.4878492617  SOLV      3099            0.0000000000
      9411      3110  TIP3      H2            -19.9420740260       -0.6311615820      -15.8073711831  SOLV      3099            0.0000000000
      9412      3111  TIP3      OH2           -17.5888183159        0.7455037957       -3.0531052878  SOLV      3100            0.0000000000
      9413      3111  TIP3      H1            -18.3623246709        1.3485712943       -3.0641367995  SOLV      3100            0.0000000000
      9414      3111  TIP3      H2            -17.0508965064        1.0977937030       -3.8015802964  SOLV      3100            0.0000000000
      9415      3112  TIP3      OH2           -19.2297213109       -1.9308933900      -16.9232639638  SOLV      3101            0.0000000000
      9416      3112  TIP3      H1            -19.4835319564       -1.7815365553      -17.8583656710  SOLV      3101            0.0000000000
      9417      3112  TIP3      H2            -18.2523737997       -1.8849358105      -16.9969600467  SOLV      3101            0.0000000000
      9418      3113  TIP3      OH2           -12.3767522853        4.7801843642       -1.7018515695  SOLV      3102            0.0000000000
      9419      3113  TIP3      H1            -11.6354854212        4.4208856398       -2.2079411514  SOLV      3102            0.0000000000
      9420      3113  TIP3      H2            -12.4351920858        4.1440696759       -0.9639125965  SOLV      3102            0.0000000000
      9421      3114  TIP3      OH2           -10.9880836407        1.5039459762      -20.3428532657  SOLV      3103            0.0000000000
      9422      3114  TIP3      H1            -11.4530993435        1.0156349041      -21.0497945812  SOLV      3103            0.0000000000
      9423      3114  TIP3      H2            -11.6199722629        2.2252374904      -20.2020087623  SOLV      3103            0.0000000000
      9424      3115  TIP3      OH2           -16.3905240647       -1.3420827996       -1.7780595869  SOLV      3104            0.0000000000
      9425      3115  TIP3      H1            -16.3394081943       -2.1247142519       -2.3632432874  SOLV      3104            0.0000000000
      9426      3115  TIP3      H2            -16.8184403087       -0.6758498354       -2.3592782442  SOLV      3104            0.0000000000
      9427      3116  TIP3      OH2           -16.3107717360       -3.4677480200       -3.6973913635  SOLV      3105            0.0000000000
      9428      3116  TIP3      H1            -16.0210452565       -3.0657358113       -4.5369209447  SOLV      3105            0.0000000000
      9429      3116  TIP3      H2            -17.2442966278       -3.6949313012       -3.8916107323  SOLV      3105            0.0000000000
      9430      3117  TIP3      OH2           -16.0933573071        1.8488347271       -4.9705818578  SOLV      3106            0.0000000000
      9431      3117  TIP3      H1            -15.2194425246        2.0058605528       -5.3512089476  SOLV      3106            0.0000000000
      9432      3117  TIP3      H2            -16.6499078729        2.4970558585       -5.4530898580  SOLV      3106            0.0000000000
      9433      3118  TIP3      OH2           -10.3798283382        1.4875672638       -1.2728794347  SOLV      3107            0.0000000000
      9434      3118  TIP3      H1            -10.0088362215        0.5947486502       -1.1699558544  SOLV      3107            0.0000000000
      9435      3118  TIP3      H2             -9.6180254220        1.9947365904       -1.5852265787  SOLV      3107            0.0000000000
      9436      3119  TIP3      OH2            -9.8468502084        4.0978354996       -3.7832250514  SOLV      3108            0.0000000000
      9437      3119  TIP3      H1            -10.3991415733        4.6504099108       -4.3847632808  SOLV      3108            0.0000000000
      9438      3119  TIP3      H2             -8.9555130172        4.2668371124       -4.1607697705  SOLV      3108            0.0000000000
      9439      3120  TIP3      OH2           -17.6406578946       -0.2469141272        0.5956925090  SOLV      3109            0.0000000000
      9440      3120  TIP3      H1            -18.2494909868       -1.0022285593        0.7244968225  SOLV      3109            0.0000000000
      9441      3120  TIP3      H2            -17.1857467748       -0.5207460490       -0.2272383006  SOLV      3109            0.0000000000
      9442      3121  TIP3      OH2           -14.9760261974       -5.8904087803       -3.0102777635  SOLV      3110            0.0000000000
      9443      3121  TIP3      H1            -15.4712457876       -5.0678095577       -3.2055605436  SOLV      3110            0.0000000000
      9444      3121  TIP3      H2            -15.6749939231       -6.5681357816       -3.0923732046  SOLV      3110            0.0000000000
      9445      3122  TIP3      OH2           -13.8298058274       -0.7812452798       -0.8217831680  SOLV      3111            0.0000000000
      9446      3122  TIP3      H1            -13.8505729172       -1.2722375115        0.0237214006  SOLV      3111            0.0000000000
      9447      3122  TIP3      H2            -14.7146964171       -1.0270549969       -1.1626332841  SOLV      3111            0.0000000000
      9448      3123  TIP3      OH2           -11.3472095827       -1.3332187038       -2.2047309691  SOLV      3112            0.0000000000
      9449      3123  TIP3      H1            -12.1270971685       -1.3946411628       -1.6206145742  SOLV      3112            0.0000000000
      9450      3123  TIP3      H2            -10.6398995063       -1.6124666409       -1.5797142753  SOLV      3112            0.0000000000
      9451      3124  TIP3      OH2            -9.3029192068       -1.8251065895       -0.4390335245  SOLV      3113            0.0000000000
      9452      3124  TIP3      H1             -9.0174154731       -2.7439813725       -0.5082248605  SOLV      3113            0.0000000000
      9453      3124  TIP3      H2             -8.9847455803       -1.6373721121        0.4609361311  SOLV      3113            0.0000000000
      9454      3125  TIP3      OH2           -19.1559600769       -2.5109451819        1.1633000465  SOLV      3114            0.0000000000
      9455      3125  TIP3      H1            -19.0875473997       -3.4260247254        0.8278875669  SOLV      3114            0.0000000000
      9456      3125  TIP3      H2            -18.7101820265       -2.6041312620        2.0322295388  SOLV      3114            0.0000000000
      9457      3126  TIP3      OH2           -14.2326052511       -5.8957289151       -0.2949815407  SOLV      3115            0.0000000000
      9458      3126  TIP3      H1            -13.4381416439       -6.4641523718       -0.2656713167  SOLV      3115            0.0000000000
      9459      3126  TIP3      H2            -14.4609852920       -5.9334043936       -1.2427676996  SOLV      3115            0.0000000000
      9460      3127  TIP3      OH2           -13.4747902086       -3.3152750609        0.6326602610  SOLV      3116            0.0000000000
      9461      3127  TIP3      H1            -13.5988837909       -4.2679418823        0.4737364892  SOLV      3116            0.0000000000
      9462      3127  TIP3      H2            -14.3231263900       -3.0396328371        1.0164971033  SOLV      3116            0.0000000000
      9463      3128  TIP3      OH2           -21.1188296367        8.7981567784      -17.7970158558  SOLV      3117            0.0000000000
      9464      3128  TIP3      H1            -20.1891256886        8.5947175890      -18.0112596990  SOLV      3117            0.0000000000
      9465      3128  TIP3      H2            -21.3886760888        9.2295168600      -18.6269863388  SOLV      3117            0.0000000000
      9466      3129  TIP3      OH2           -26.4024272137        2.5358131614      -15.7163308042  SOLV      3118            0.0000000000
      9467      3129  TIP3      H1            -25.4498285412        2.7338844712      -15.8584230020  SOLV      3118            0.0000000000
      9468      3129  TIP3      H2            -26.4675562693        1.6460555725      -16.1213741452  SOLV      3118            0.0000000000
      9469      3130  TIP3      OH2           -27.2016618048        8.6667596967      -11.5244207451  SOLV      3119            0.0000000000
      9470      3130  TIP3      H1            -27.8338033587        8.0509004110      -11.9546741342  SOLV      3119            0.0000000000
      9471      3130  TIP3      H2            -26.7745581247        8.0547366286      -10.8847049591  SOLV      3119            0.0000000000
      9472      3131  TIP3      OH2           -25.8899301706        7.0727328903       -9.6699464909  SOLV      3120            0.0000000000
      9473      3131  TIP3      H1            -25.9891557909        6.3652893195       -9.0066498941  SOLV      3120            0.0000000000
      9474      3131  TIP3      H2            -25.3470410117        7.6960495938       -9.1562553047  SOLV      3120            0.0000000000
      9475      3132  TIP3      OH2            -8.5552612787       11.0861143993      -11.6486809314  SOLV      3121            0.0000000000
      9476      3132  TIP3      H1             -8.3043377094       11.4064702631      -10.7637298990  SOLV      3121            0.0000000000
      9477      3132  TIP3      H2             -7.9067788959       11.5204780269      -12.2227105424  SOLV      3121            0.0000000000
      9478      3133  TIP3      OH2            -8.3168961153       11.3129552079       -8.8308410298  SOLV      3122            0.0000000000
      9479      3133  TIP3      H1             -8.7864270003       10.4517682352       -8.8824298194  SOLV      3122            0.0000000000
      9480      3133  TIP3      H2             -7.5664838902       11.0510295228       -8.2741201284  SOLV      3122            0.0000000000
      9481      3134  TIP3      OH2            -7.8830677321        8.1194518421       -3.1463174675  SOLV      3123            0.0000000000
      9482      3134  TIP3      H1             -8.5722633801        8.2097840784       -2.4580662838  SOLV      3123            0.0000000000
      9483      3134  TIP3      H2             -7.4274640793        8.9829929879       -3.0844836418  SOLV      3123            0.0000000000
      9484      3135  TIP3      OH2            -9.6280376467        3.1348558967      -16.9780380317  SOLV      3124            0.0000000000
      9485      3135  TIP3      H1             -9.0110442310        3.8341995559      -17.2697799205  SOLV      3124            0.0000000000
      9486      3135  TIP3      H2             -9.1797795443        2.8026479890      -16.1696421625  SOLV      3124            0.0000000000
      9487      3136  TIP3      OH2            -8.3727821125        1.8564496169      -14.8803828762  SOLV      3125            0.0000000000
      9488      3136  TIP3      H1             -9.0641868600        1.4706359795      -14.2980207883  SOLV      3125            0.0000000000
      9489      3136  TIP3      H2             -7.7463431665        2.2423607755      -14.2345384935  SOLV      3125            0.0000000000
      9490      3137  TIP3      OH2            -7.8144408939        5.8520730180      -10.5696194611  SOLV      3126            0.0000000000
      9491      3137  TIP3      H1             -7.3060453039        5.1526875898      -11.0267709966  SOLV      3126            0.0000000000
      9492      3137  TIP3      H2             -7.8662243744        6.5510062844      -11.2499363835  SOLV      3126            0.0000000000
      9493      3138  TIP3      OH2            -9.5773352743        8.8311071774       -8.6486016359  SOLV      3127            0.0000000000
      9494      3138  TIP3      H1            -10.3083526384        9.2340092717       -8.1419406361  SOLV      3127            0.0000000000
      9495      3138  TIP3      H2            -10.0587009746        8.3782953717       -9.3755654433  SOLV      3127            0.0000000000
      9496      3139  TIP3      OH2            -9.0475451556        0.9378268971      -18.5076474326  SOLV      3128            0.0000000000
      9497      3139  TIP3      H1             -9.7295501542        1.0287044054      -19.2142838239  SOLV      3128            0.0000000000
      9498      3139  TIP3      H2             -9.3249995210        1.6864687748      -17.9351673106  SOLV      3128            0.0000000000
      9499      3140  TIP3      OH2           -10.2918556755       -2.3474597787      -18.9461544163  SOLV      3129            0.0000000000
      9500      3140  TIP3      H1            -10.7829139794       -1.9318721326      -19.6651743977  SOLV      3129            0.0000000000
      9501      3140  TIP3      H2            -10.5347855735       -3.2880300350      -19.0743262278  SOLV      3129            0.0000000000
      9502      3141  TIP3      OH2           -10.2639928451        0.4930940464      -13.4247759378  SOLV      3130            0.0000000000
      9503      3141  TIP3      H1            -10.1993886669       -0.4720336979      -13.4939832911  SOLV      3130            0.0000000000
      9504      3141  TIP3      H2            -10.4256896182        0.6224106921      -12.4618490047  SOLV      3130            0.0000000000
      9505      3142  TIP3      OH2           -24.0344443892        1.1502343686       -5.9090054435  SOLV      3131            0.0000000000
      9506      3142  TIP3      H1            -24.0661962441        0.8375003167       -6.8418446692  SOLV      3131            0.0000000000
      9507      3142  TIP3      H2            -23.0590903166        1.1775941761       -5.7722809926  SOLV      3131            0.0000000000
      9508      3143  TIP3      OH2            -7.3293864482        4.6741361921       -4.8536314760  SOLV      3132            0.0000000000
      9509      3143  TIP3      H1             -6.6366589625        3.9877694323       -4.9604580488  SOLV      3132            0.0000000000
      9510      3143  TIP3      H2             -7.0781576366        5.3338986334       -5.5182141297  SOLV      3132            0.0000000000
      9511      3144  TIP3      OH2            -5.4536030975        2.6276313014       -4.7987499910  SOLV      3133            0.0000000000
      9512      3144  TIP3      H1             -6.2513022760        2.2009426936       -4.4116279526  SOLV      3133            0.0000000000
      9513      3144  TIP3      H2             -4.7784380367        1.9713840937       -4.5448696004  SOLV      3133            0.0000000000
      9514      3145  TIP3      OH2           -10.8504515710       -5.0368336369      -19.1688726205  SOLV      3134            0.0000000000
      9515      3145  TIP3      H1            -10.1401792952       -5.2779321930      -18.5390582942  SOLV      3134            0.0000000000
      9516      3145  TIP3      H2            -11.6119040438       -5.5550762906      -18.8648579342  SOLV      3134            0.0000000000
      9517      3146  TIP3      OH2           -10.3080260546       -2.3684336870      -14.5314619616  SOLV      3135            0.0000000000
      9518      3146  TIP3      H1             -9.8931452453       -3.2532736756      -14.3967463949  SOLV      3135            0.0000000000
      9519      3146  TIP3      H2             -9.7276455089       -2.0174520073      -15.2296729950  SOLV      3135            0.0000000000
      9520      3147  TIP3      OH2            -8.7346164681       -0.7046338858       -9.5717961997  SOLV      3136            0.0000000000
      9521      3147  TIP3      H1             -7.8769075048       -0.4594044145       -9.9875355570  SOLV      3136            0.0000000000
      9522      3147  TIP3      H2             -8.5847754667       -0.3148745633       -8.6849859253  SOLV      3136            0.0000000000
      9523      3148  TIP3      OH2            -8.0230093616        0.8014546191       -7.3418290373  SOLV      3137            0.0000000000
      9524      3148  TIP3      H1             -8.7525545604        1.1330109668       -6.7878322013  SOLV      3137            0.0000000000
      9525      3148  TIP3      H2             -7.6626031905        1.6313210022       -7.7193058901  SOLV      3137            0.0000000000
      9526      3149  TIP3      OH2           -21.8080839443       -1.9469557046        0.7927539028  SOLV      3138            0.0000000000
      9527      3149  TIP3      H1            -20.8309474475       -2.0284097588        0.8396752638  SOLV      3138            0.0000000000
      9528      3149  TIP3      H2            -22.0635546551       -2.8250556443        1.1425362531  SOLV      3138            0.0000000000
      9529      3150  TIP3      OH2            -9.2050099909       -4.8644172594      -14.1536495440  SOLV      3139            0.0000000000
      9530      3150  TIP3      H1             -8.7303974129       -5.0119885909      -13.3078616776  SOLV      3139            0.0000000000
      9531      3150  TIP3      H2             -9.8280463323       -5.6189306109      -14.1448914093  SOLV      3139            0.0000000000
      9532      3151  TIP3      OH2           -22.2197717184       -5.0086481460       -5.9387141109  SOLV      3140            0.0000000000
      9533      3151  TIP3      H1            -21.5984221444       -5.7583950216       -5.8547232324  SOLV      3140            0.0000000000
      9534      3151  TIP3      H2            -21.5991243415       -4.2630882771       -6.0231212873  SOLV      3140            0.0000000000
      9535      3152  TIP3      OH2           -24.1890668768       -2.3136898822       -5.1846903793  SOLV      3141            0.0000000000
      9536      3152  TIP3      H1            -23.7184808888       -2.3076885922       -6.0427387847  SOLV      3141            0.0000000000
      9537      3152  TIP3      H2            -24.0003162230       -1.4269519910       -4.8574014685  SOLV      3141            0.0000000000
      9538      3153  TIP3      OH2            -8.4643181135       -5.5541871091      -17.7687483443  SOLV      3142            0.0000000000
      9539      3153  TIP3      H1             -8.0347644585       -6.2399769137      -18.3183917493  SOLV      3142            0.0000000000
      9540      3153  TIP3      H2             -7.7967804424       -4.8390988040      -17.7640103241  SOLV      3142            0.0000000000
      9541      3154  TIP3      OH2           -24.3689822358       -7.4009179866      -10.2853176958  SOLV      3143            0.0000000000
      9542      3154  TIP3      H1            -25.2570914545       -7.3658205152       -9.8865576863  SOLV      3143            0.0000000000
      9543      3154  TIP3      H2            -24.4398511490       -6.7277170737      -10.9947517550  SOLV      3143            0.0000000000
      9544      3155  TIP3      OH2           -12.7003825898        9.7402149316      -15.1214122840  SOLV      3144            0.0000000000
      9545      3155  TIP3      H1            -12.1947537583        9.6743277543      -15.9559656945  SOLV      3144            0.0000000000
      9546      3155  TIP3      H2            -12.2377676240       10.4529734500      -14.6560580942  SOLV      3144            0.0000000000
      9547      3156  TIP3      OH2           -22.1532276967       -6.5068489652       -2.0661764728  SOLV      3145            0.0000000000
      9548      3156  TIP3      H1            -22.6586796423       -6.4944467252       -1.2380556608  SOLV      3145            0.0000000000
      9549      3156  TIP3      H2            -22.7936784091       -6.0898829438       -2.6777920102  SOLV      3145            0.0000000000
      9550      3157  TIP3      OH2           -21.7751069725        7.8786899782       -1.3132353538  SOLV      3146            0.0000000000
      9551      3157  TIP3      H1            -22.7020893079        7.6226203918       -1.4823170413  SOLV      3146            0.0000000000
      9552      3157  TIP3      H2            -21.6764965082        7.6661706607       -0.3792797635  SOLV      3146            0.0000000000
      9553      3158  TIP3      OH2           -19.9398061692        8.2263828299       -5.7899373249  SOLV      3147            0.0000000000
      9554      3158  TIP3      H1            -20.4076694126        8.9876288537       -6.1947646711  SOLV      3147            0.0000000000
      9555      3158  TIP3      H2            -19.0831649956        8.3381853458       -6.2524003124  SOLV      3147            0.0000000000
      9556      3159  TIP3      OH2           -15.5815073401       10.6001945134       -4.4103523016  SOLV      3148            0.0000000000
      9557      3159  TIP3      H1            -15.1416593084       10.5966844705       -3.5340471335  SOLV      3148            0.0000000000
      9558      3159  TIP3      H2            -14.9340580694       11.1188704223       -4.9357176070  SOLV      3148            0.0000000000
      9559      3160  TIP3      OH2           -13.7868549971       12.1469840586       -5.7886283449  SOLV      3149            0.0000000000
      9560      3160  TIP3      H1            -13.1075729567       11.6434527607       -6.2598699314  SOLV      3149            0.0000000000
      9561      3160  TIP3      H2            -13.2319777427       12.7013504184       -5.1973664972  SOLV      3149            0.0000000000
      9562      3161  TIP3      OH2            -5.9733588737       -4.3622739070       -5.1334264407  SOLV      3150            0.0000000000
      9563      3161  TIP3      H1             -6.8824087621       -4.6435900140       -5.3168996221  SOLV      3150            0.0000000000
      9564      3161  TIP3      H2             -5.5146667210       -5.2244607789       -5.0611732614  SOLV      3150            0.0000000000
      9565      3162  TIP3      OH2           -23.2318573976       10.7407056399       -5.5628063380  SOLV      3151            0.0000000000
      9566      3162  TIP3      H1            -24.1403160935       11.0541056417       -5.7734246845  SOLV      3151            0.0000000000
      9567      3162  TIP3      H2            -23.0847005925       11.2004400666       -4.7264680395  SOLV      3151            0.0000000000
      9568      3163  TIP3      OH2           -20.8471825528       10.5300493276       -6.9610780951  SOLV      3152            0.0000000000
      9569      3163  TIP3      H1            -21.7311208498       10.6536145936       -6.5518907003  SOLV      3152            0.0000000000
      9570      3163  TIP3      H2            -21.0205920513       10.8166550971       -7.8816628386  SOLV      3152            0.0000000000
      9571      3164  TIP3      OH2           -16.5533903492       10.7418203804       -8.9470896930  SOLV      3153            0.0000000000
      9572      3164  TIP3      H1            -17.2900074165       10.8230155521       -9.5947784973  SOLV      3153            0.0000000000
      9573      3164  TIP3      H2            -16.4852997885       11.6607889690       -8.6242530897  SOLV      3153            0.0000000000
      9574      3165  TIP3      OH2           -13.8735914476       10.1607983181       -8.4130957000  SOLV      3154            0.0000000000
      9575      3165  TIP3      H1            -14.8164114795       10.3243076115       -8.6225927238  SOLV      3154            0.0000000000
      9576      3165  TIP3      H2            -13.4385431050       10.8467045960       -8.9436629191  SOLV      3154            0.0000000000
      9577      3166  TIP3      OH2           -11.8249255451       12.0972694324       -9.3482737873  SOLV      3155            0.0000000000
      9578      3166  TIP3      H1            -11.9875178519       12.9264785587       -9.8445843048  SOLV      3155            0.0000000000
      9579      3166  TIP3      H2            -11.5645315071       11.4817420058      -10.0709925779  SOLV      3155            0.0000000000
      9580      3167  TIP3      OH2           -24.1146414465        8.6616253037       -8.1048837737  SOLV      3156            0.0000000000
      9581      3167  TIP3      H1            -23.8423568333        8.3674514294       -7.2094545304  SOLV      3156            0.0000000000
      9582      3167  TIP3      H2            -23.4050782330        8.2192226314       -8.6276420404  SOLV      3156            0.0000000000
      9583      3168  TIP3      OH2           -22.1851338448        7.3755817428       -9.5062707247  SOLV      3157            0.0000000000
      9584      3168  TIP3      H1            -22.0420294796        6.5380376877       -9.0055762127  SOLV      3157            0.0000000000
      9585      3168  TIP3      H2            -21.2628702202        7.7125374229       -9.5494031787  SOLV      3157            0.0000000000
      9586      3169  TIP3      OH2           -19.5372638688        8.2163753535       -9.4126155301  SOLV      3158            0.0000000000
      9587      3169  TIP3      H1            -19.2197906713        7.2981231067       -9.5190001801  SOLV      3158            0.0000000000
      9588      3169  TIP3      H2            -18.9979216498        8.4849908087       -8.6446373757  SOLV      3158            0.0000000000
      9589      3170  TIP3      OH2           -13.7821923751       -5.1439402293       -8.6659910744  SOLV      3159            0.0000000000
      9590      3170  TIP3      H1            -14.1799776359       -5.8524986203       -8.1298722659  SOLV      3159            0.0000000000
      9591      3170  TIP3      H2            -12.9915188089       -5.5789709426       -9.0437143964  SOLV      3159            0.0000000000
      9592      3171  TIP3      OH2            -8.5646389704       -6.4140961894       -9.6703721337  SOLV      3160            0.0000000000
      9593      3171  TIP3      H1             -8.1924028724       -5.8350007064      -10.3717295088  SOLV      3160            0.0000000000
      9594      3171  TIP3      H2             -9.4841468684       -6.0961555799       -9.6203727166  SOLV      3160            0.0000000000
      9595      3172  TIP3      OH2            -7.5782863430       -5.3366671875      -11.9876863702  SOLV      3161            0.0000000000
      9596      3172  TIP3      H1             -6.8176573305       -5.8408302096      -12.3430414588  SOLV      3161            0.0000000000
      9597      3172  TIP3      H2             -7.2453252491       -4.4172628657      -12.1111941630  SOLV      3161            0.0000000000
      9598      3173  TIP3      OH2           -21.2650132811       -8.0501641765       -8.5144752314  SOLV      3162            0.0000000000
      9599      3173  TIP3      H1            -22.1906070389       -8.3710721235       -8.4511549562  SOLV      3162            0.0000000000
      9600      3173  TIP3      H2            -20.7862950666       -8.9069322768       -8.5355621962  SOLV      3162            0.0000000000
      9601      3174  TIP3      OH2           -23.4463115339       -9.3556356217      -12.0443496454  SOLV      3163            0.0000000000
      9602      3174  TIP3      H1            -23.1189650575       -8.7558110793      -12.7378960472  SOLV      3163            0.0000000000
      9603      3174  TIP3      H2            -23.7128329274       -8.7124753142      -11.3494670706  SOLV      3163            0.0000000000
      9604      3175  TIP3      OH2           -16.7842757781       -7.7444937765       -9.6464252947  SOLV      3164            0.0000000000
      9605      3175  TIP3      H1            -16.2551640560       -7.2490987072      -10.2914925959  SOLV      3164            0.0000000000
      9606      3175  TIP3      H2            -16.5073521446       -7.3382918129       -8.8100862268  SOLV      3164            0.0000000000
      9607      3176  TIP3      OH2           -11.4365770734       -6.2313057845       -9.8227138712  SOLV      3165            0.0000000000
      9608      3176  TIP3      H1            -11.3579081854       -6.6433211401      -10.6915446164  SOLV      3165            0.0000000000
      9609      3176  TIP3      H2            -11.5324495238       -7.0234708731       -9.2413125166  SOLV      3165            0.0000000000
      9610      3177  TIP3      OH2           -11.0599469786       -6.9790085663      -14.2059886588  SOLV      3166            0.0000000000
      9611      3177  TIP3      H1            -11.8931027535       -6.5143490162      -13.9904979570  SOLV      3166            0.0000000000
      9612      3177  TIP3      H2            -11.2104148793       -7.8376505165      -13.7566294383  SOLV      3166            0.0000000000
      9613      3178  TIP3      OH2           -26.2735446867        6.3504908458      -14.3619617528  SOLV      3167            0.0000000000
      9614      3178  TIP3      H1            -27.1444106210        6.0451957527      -14.6361227060  SOLV      3167            0.0000000000
      9615      3178  TIP3      H2            -26.3246900617        7.2961327675      -14.6324915432  SOLV      3167            0.0000000000
      9616      3179  TIP3      OH2           -22.1822146757       -7.7796794503      -14.3770789210  SOLV      3168            0.0000000000
      9617      3179  TIP3      H1            -21.6764494465       -8.3739090733      -14.9616524813  SOLV      3168            0.0000000000
      9618      3179  TIP3      H2            -21.4721069773       -7.2145992171      -14.0105946678  SOLV      3168            0.0000000000
      9619      3180  TIP3      OH2           -17.1013261447       -5.9650232712      -13.3792119384  SOLV      3169            0.0000000000
      9620      3180  TIP3      H1            -16.4888822676       -6.4007922801      -12.7608388391  SOLV      3169            0.0000000000
      9621      3180  TIP3      H2            -16.9189963807       -5.0278430614      -13.1400361690  SOLV      3169            0.0000000000
      9622      3181  TIP3      OH2           -18.4946959757        8.1845223526      -18.4202557283  SOLV      3170            0.0000000000
      9623      3181  TIP3      H1            -17.6096661298        8.4088863893      -18.7741070549  SOLV      3170            0.0000000000
      9624      3181  TIP3      H2            -18.7040029147        7.4260141926      -19.0130564205  SOLV      3170            0.0000000000
      9625      3182  TIP3      OH2           -11.2428424700        9.4514411065      -17.4648002912  SOLV      3171            0.0000000000
      9626      3182  TIP3      H1            -11.3236780982        8.4685449958      -17.5268357244  SOLV      3171            0.0000000000
      9627      3182  TIP3      H2            -11.7623236182        9.7229338294      -18.2475738425  SOLV      3171            0.0000000000
      9628      3183  TIP3      OH2           -19.1753177495       -5.2590995621        0.3973885234  SOLV      3172            0.0000000000
      9629      3183  TIP3      H1            -19.5388392321       -5.9523199461        0.9776216066  SOLV      3172            0.0000000000
      9630      3183  TIP3      H2            -18.2356783223       -5.2616131634        0.6925326081  SOLV      3172            0.0000000000
      9631      3184  TIP3      OH2           -16.6601552863       -5.2611809638        1.5732097877  SOLV      3173            0.0000000000
      9632      3184  TIP3      H1            -15.8066731550       -5.4596901425        1.1418542383  SOLV      3173            0.0000000000
      9633      3184  TIP3      H2            -16.7152664830       -5.9824207267        2.2272848598  SOLV      3173            0.0000000000
      9634      3185  TIP3      OH2           -25.0770102429        7.1310691559      -17.6450335697  SOLV      3174            0.0000000000
      9635      3185  TIP3      H1            -25.5913566860        6.7017050752      -16.9492605740  SOLV      3174            0.0000000000
      9636      3185  TIP3      H2            -24.3427235590        6.5014155950      -17.7954329874  SOLV      3174            0.0000000000
      9637      3186  TIP3      OH2            -9.0911954124       10.8816810377       -5.5763971193  SOLV      3175            0.0000000000
      9638      3186  TIP3      H1             -9.8631579467       10.5824898577       -6.1009224715  SOLV      3175            0.0000000000
      9639      3186  TIP3      H2             -9.2853626606       11.8378562465       -5.5089583513  SOLV      3175            0.0000000000
      9640      3187  TIP3      OH2             3.6274025127        4.6245325033      -17.9667522154  SOLV      3176            0.0000000000
      9641      3187  TIP3      H1              3.3203859543        5.5318960874      -18.1691219406  SOLV      3176            0.0000000000
      9642      3187  TIP3      H2              2.8627226679        4.1121723746      -18.2826097690  SOLV      3176            0.0000000000
      9643      3188  TIP3      OH2             3.6593642287        4.6034860727      -14.0942437446  SOLV      3177            0.0000000000
      9644      3188  TIP3      H1              3.9712371592        4.4210399522      -13.1875499029  SOLV      3177            0.0000000000
      9645      3188  TIP3      H2              3.1731840266        3.7916964989      -14.3079550597  SOLV      3177            0.0000000000
      9646      3189  TIP3      OH2            -3.4156200449        3.5218491734      -10.4773361579  SOLV      3178            0.0000000000
      9647      3189  TIP3      H1             -3.1394060889        2.8067000017       -9.8737929376  SOLV      3178            0.0000000000
      9648      3189  TIP3      H2             -2.6757276430        4.1360145676      -10.3750972388  SOLV      3178            0.0000000000
      9649      3190  TIP3      OH2             6.0786661907        7.6772191191      -17.2649471608  SOLV      3179            0.0000000000
      9650      3190  TIP3      H1              5.8881917561        7.0113530831      -16.5913835576  SOLV      3179            0.0000000000
      9651      3190  TIP3      H2              6.3811350567        8.4321023762      -16.7302514014  SOLV      3179            0.0000000000
      9652      3191  TIP3      OH2            -3.6717514521        7.6805148618      -13.2650425818  SOLV      3180            0.0000000000
      9653      3191  TIP3      H1             -3.7497948650        6.7019434222      -13.2521203196  SOLV      3180            0.0000000000
      9654      3191  TIP3      H2             -2.7041779373        7.7795339600      -13.2835344186  SOLV      3180            0.0000000000
      9655      3192  TIP3      OH2            -6.5940306287       -0.3398009136      -15.4488585508  SOLV      3181            0.0000000000
      9656      3192  TIP3      H1             -7.0603828497        0.4799368257      -15.2021002775  SOLV      3181            0.0000000000
      9657      3192  TIP3      H2             -7.3246931367       -0.8294241387      -15.8688866892  SOLV      3181            0.0000000000
      9658      3193  TIP3      OH2            -6.0408249221        2.5646454828      -13.5814364288  SOLV      3182            0.0000000000
      9659      3193  TIP3      H1             -5.5355487008        1.7828507031      -13.2627799416  SOLV      3182            0.0000000000
      9660      3193  TIP3      H2             -5.4346389845        2.9460536560      -14.2291821411  SOLV      3182            0.0000000000
      9661      3194  TIP3      OH2             2.5856586627       12.2832449620      -17.1013222339  SOLV      3183            0.0000000000
      9662      3194  TIP3      H1              2.9975517599       11.5474974381      -17.5986316884  SOLV      3183            0.0000000000
      9663      3194  TIP3      H2              2.4353732984       11.8818886287      -16.2364844502  SOLV      3183            0.0000000000
      9664      3195  TIP3      OH2             1.5778711351        6.8988404521      -13.6291639104  SOLV      3184            0.0000000000
      9665      3195  TIP3      H1              1.9938040254        6.1487644603      -14.0835432129  SOLV      3184            0.0000000000
      9666      3195  TIP3      H2              2.3957418594        7.3685292640      -13.3539517732  SOLV      3184            0.0000000000
      9667      3196  TIP3      OH2            11.8364128420        0.0494963784      -13.6159331508  SOLV      3185            0.0000000000
      9668      3196  TIP3      H1             12.1001173113        0.8910658360      -13.2063125960  SOLV      3185            0.0000000000
      9669      3196  TIP3      H2             12.1016373383        0.1802700655      -14.5420096014  SOLV      3185            0.0000000000
      9670      3197  TIP3      OH2             5.6613596879        1.7305901792      -13.2877467889  SOLV      3186            0.0000000000
      9671      3197  TIP3      H1              6.4436032970        1.1681045411      -13.3487223379  SOLV      3186            0.0000000000
      9672      3197  TIP3      H2              5.3323355019        1.6974286111      -14.2093742488  SOLV      3186            0.0000000000
      9673      3198  TIP3      OH2            -0.8193186864       -1.5239159349      -13.7096265165  SOLV      3187            0.0000000000
      9674      3198  TIP3      H1             -1.0635055995       -0.7890615907      -14.3114472400  SOLV      3187            0.0000000000
      9675      3198  TIP3      H2             -1.3450490469       -2.2503359185      -14.1114837988  SOLV      3187            0.0000000000
      9676      3199  TIP3      OH2             6.0675103872       -0.5769193536      -17.4723877940  SOLV      3188            0.0000000000
      9677      3199  TIP3      H1              6.7478548909       -0.6919043729      -16.7688975315  SOLV      3188            0.0000000000
      9678      3199  TIP3      H2              6.6296100619       -0.2635960872      -18.2069516916  SOLV      3188            0.0000000000
      9679      3200  TIP3      OH2            -4.5460948604        0.5056220874      -12.6000770108  SOLV      3189            0.0000000000
      9680      3200  TIP3      H1             -3.7290904413        0.3199869713      -12.0998687130  SOLV      3189            0.0000000000
      9681      3200  TIP3      H2             -4.3937116779       -0.0604566865      -13.3866619075  SOLV      3189            0.0000000000
      9682      3201  TIP3      OH2            -0.1724927503        2.4745264744      -14.6578213922  SOLV      3190            0.0000000000
      9683      3201  TIP3      H1              0.7678325705        2.2279652991      -14.5281631765  SOLV      3190            0.0000000000
      9684      3201  TIP3      H2             -0.5597334108        1.6302436852      -14.9742880473  SOLV      3190            0.0000000000
      9685      3202  TIP3      OH2            12.4607773474        2.2160251051      -11.8450960699  SOLV      3191            0.0000000000
      9686      3202  TIP3      H1             11.6621552830        2.7173348489      -12.1062321814  SOLV      3191            0.0000000000
      9687      3202  TIP3      H2             12.6286072518        2.5539106724      -10.9546485396  SOLV      3191            0.0000000000
      9688      3203  TIP3      OH2            -0.9413181930       -1.6819097619       -9.2947994596  SOLV      3192            0.0000000000
      9689      3203  TIP3      H1             -1.5429985279       -1.2990483585       -9.9599113665  SOLV      3192            0.0000000000
      9690      3203  TIP3      H2             -1.4713453315       -1.5383600351       -8.4819952777  SOLV      3192            0.0000000000
      9691      3204  TIP3      OH2             2.5100046491        6.8291501641      -19.2789902374  SOLV      3193            0.0000000000
      9692      3204  TIP3      H1              2.0737219377        6.7033189555      -20.1341873547  SOLV      3193            0.0000000000
      9693      3204  TIP3      H2              2.0613402218        7.6439452115      -18.9646886276  SOLV      3193            0.0000000000
      9694      3205  TIP3      OH2             0.1389061836        6.0846439922      -11.3988447632  SOLV      3194            0.0000000000
      9695      3205  TIP3      H1             -0.4588088173        6.7709053269      -11.0262605557  SOLV      3194            0.0000000000
      9696      3205  TIP3      H2              0.5538519000        6.5656839216      -12.1445943139  SOLV      3194            0.0000000000
      9697      3206  TIP3      OH2             8.0562926362       -0.4668027554      -15.6178584395  SOLV      3195            0.0000000000
      9698      3206  TIP3      H1              8.5308473043       -1.2002325158      -15.2059058071  SOLV      3195            0.0000000000
      9699      3206  TIP3      H2              8.6100893488        0.2992345838      -15.3701237914  SOLV      3195            0.0000000000
      9700      3207  TIP3      OH2            -2.1948472847       -0.5346405441      -11.4985915661  SOLV      3196            0.0000000000
      9701      3207  TIP3      H1             -1.5865606379        0.1909513577      -11.2323627247  SOLV      3196            0.0000000000
      9702      3207  TIP3      H2             -1.6813706386       -0.9285458632      -12.2376021875  SOLV      3196            0.0000000000
      9703      3208  TIP3      OH2            -1.5672139942        8.0542871859      -10.4012770369  SOLV      3197            0.0000000000
      9704      3208  TIP3      H1             -1.8174073419        8.9404563805      -10.7367305062  SOLV      3197            0.0000000000
      9705      3208  TIP3      H2             -2.3620959257        7.8661265599       -9.8559862415  SOLV      3197            0.0000000000
      9706      3209  TIP3      OH2            -7.6727581369        4.9426162967      -18.0549339447  SOLV      3198            0.0000000000
      9707      3209  TIP3      H1             -8.1201580450        5.2357659432      -18.8690191902  SOLV      3198            0.0000000000
      9708      3209  TIP3      H2             -7.3529094782        5.7953038557      -17.6919436700  SOLV      3198            0.0000000000
      9709      3210  TIP3      OH2             6.7349589023       10.1085629105      -15.6647193556  SOLV      3199            0.0000000000
      9710      3210  TIP3      H1              5.8469934701       10.0103082313      -15.2482554517  SOLV      3199            0.0000000000
      9711      3210  TIP3      H2              6.6375072194       10.9796376935      -16.0988182388  SOLV      3199            0.0000000000
      9712      3211  TIP3      OH2             2.5927084175       -4.5231625036      -12.1068298910  SOLV      3200            0.0000000000
      9713      3211  TIP3      H1              2.4010160688       -5.4668616917      -11.9412441616  SOLV      3200            0.0000000000
      9714      3211  TIP3      H2              1.8293218958       -4.1115929688      -11.6415033515  SOLV      3200            0.0000000000
      9715      3212  TIP3      OH2             3.7299046827       10.5204602685      -18.9377751416  SOLV      3201            0.0000000000
      9716      3212  TIP3      H1              4.2371793381        9.6929492087      -19.1073928742  SOLV      3201            0.0000000000
      9717      3212  TIP3      H2              4.3635464730       11.1705245343      -19.3195679977  SOLV      3201            0.0000000000
      9718      3213  TIP3      OH2             5.1949105807        8.3680624732      -19.7806476638  SOLV      3202            0.0000000000
      9719      3213  TIP3      H1              4.7339604363        7.5789771663      -20.0919489356  SOLV      3202            0.0000000000
      9720      3213  TIP3      H2              5.5932406040        8.0455120979      -18.9411103060  SOLV      3202            0.0000000000
      9721      3214  TIP3      OH2             8.9870237557        9.1810212450      -12.1989890012  SOLV      3203            0.0000000000
      9722      3214  TIP3      H1              8.8563596838        8.4126108857      -12.7953394342  SOLV      3203            0.0000000000
      9723      3214  TIP3      H2              8.8107383910        9.9345462004      -12.8004253773  SOLV      3203            0.0000000000
      9724      3215  TIP3      OH2             1.9201148628        3.1241225116      -19.5827758382  SOLV      3204            0.0000000000
      9725      3215  TIP3      H1              1.1246865491        3.6659562133      -19.7694932214  SOLV      3204            0.0000000000
      9726      3215  TIP3      H2              2.3645863362        3.1196176472      -20.4484610175  SOLV      3204            0.0000000000
      9727      3216  TIP3      OH2             1.4951844133        1.0188457354      -22.5160439211  SOLV      3205            0.0000000000
      9728      3216  TIP3      H1              2.1433246134        1.5481197109      -22.0165231493  SOLV      3205            0.0000000000
      9729      3216  TIP3      H2              2.0955314232        0.3946749687      -22.9740091223  SOLV      3205            0.0000000000
      9730      3217  TIP3      OH2            10.9163938707        5.5361581999      -13.7258884771  SOLV      3206            0.0000000000
      9731      3217  TIP3      H1             10.0946726584        6.0748293901      -13.6938421158  SOLV      3206            0.0000000000
      9732      3217  TIP3      H2             11.2579118626        5.8072156475      -14.6059877141  SOLV      3206            0.0000000000
      9733      3218  TIP3      OH2             5.4073119047        3.9698710491      -19.9354479426  SOLV      3207            0.0000000000
      9734      3218  TIP3      H1              4.8615395172        4.2026837823      -19.1479948637  SOLV      3207            0.0000000000
      9735      3218  TIP3      H2              6.2577191819        3.7461302117      -19.5018845808  SOLV      3207            0.0000000000
      9736      3219  TIP3      OH2             7.7168984638        4.3526717294      -10.7925735865  SOLV      3208            0.0000000000
      9737      3219  TIP3      H1              7.7300362629        5.0751878703      -10.1333680489  SOLV      3208            0.0000000000
      9738      3219  TIP3      H2              6.8291135725        4.4738714449      -11.1812299355  SOLV      3208            0.0000000000
      9739      3220  TIP3      OH2            -2.2831735595        3.9157138420      -15.7269226167  SOLV      3209            0.0000000000
      9740      3220  TIP3      H1             -2.6781625299        3.3370967855      -16.4117872970  SOLV      3209            0.0000000000
      9741      3220  TIP3      H2             -1.5176899891        3.3841744018      -15.4211664628  SOLV      3209            0.0000000000
      9742      3221  TIP3      OH2            -0.9654272515        8.0750716810      -14.2646606106  SOLV      3210            0.0000000000
      9743      3221  TIP3      H1             -1.1697633517        7.7217586525      -15.1437196070  SOLV      3210            0.0000000000
      9744      3221  TIP3      H2             -0.0811104564        7.6923106852      -14.0874882031  SOLV      3210            0.0000000000
      9745      3222  TIP3      OH2            -0.8702729522        3.6228610858      -12.1788877058  SOLV      3211            0.0000000000
      9746      3222  TIP3      H1             -0.5729663418        3.4103117293      -13.0858565074  SOLV      3211            0.0000000000
      9747      3222  TIP3      H2             -0.4731794342        4.5033425615      -12.0136773733  SOLV      3211            0.0000000000
      9748      3223  TIP3      OH2             4.3554243761       10.0202174287      -14.4085208957  SOLV      3212            0.0000000000
      9749      3223  TIP3      H1              4.2099246439       10.8389979996      -13.9001206968  SOLV      3212            0.0000000000
      9750      3223  TIP3      H2              4.1566197696        9.3158669863      -13.7615898668  SOLV      3212            0.0000000000
      9751      3224  TIP3      OH2             0.4749301971        9.2111712046       -8.9440824481  SOLV      3213            0.0000000000
      9752      3224  TIP3      H1             -0.1459696718        9.8168658372       -8.4833746195  SOLV      3213            0.0000000000
      9753      3224  TIP3      H2             -0.1629462577        8.6751273658       -9.4590983390  SOLV      3213            0.0000000000
      9754      3225  TIP3      OH2             3.7689480745        2.5519606216      -21.6428098788  SOLV      3214            0.0000000000
      9755      3225  TIP3      H1              4.3611023477        3.1649222666      -21.1512151279  SOLV      3214            0.0000000000
      9756      3225  TIP3      H2              4.0428694607        2.7444589774      -22.5736926493  SOLV      3214            0.0000000000
      9757      3226  TIP3      OH2            -1.9872605460        4.7471321775       -7.9291952330  SOLV      3215            0.0000000000
      9758      3226  TIP3      H1             -1.9168744494        5.6183879413       -7.4904715116  SOLV      3215            0.0000000000
      9759      3226  TIP3      H2             -2.9188367620        4.5293892493       -7.7176422536  SOLV      3215            0.0000000000
      9760      3227  TIP3      OH2             1.2739624944        9.2826315795      -18.8912123539  SOLV      3216            0.0000000000
      9761      3227  TIP3      H1              2.0931407810        9.8122599018      -18.8218510506  SOLV      3216            0.0000000000
      9762      3227  TIP3      H2              0.6560958864        9.9058297066      -19.2925798662  SOLV      3216            0.0000000000
      9763      3228  TIP3      OH2            -1.5980005806       10.8528008221       -8.0604016826  SOLV      3217            0.0000000000
      9764      3228  TIP3      H1             -1.9512606945       10.9142882460       -8.9679352033  SOLV      3217            0.0000000000
      9765      3228  TIP3      H2             -2.4073009004       10.6466587365       -7.5400062214  SOLV      3217            0.0000000000
      9766      3229  TIP3      OH2             8.9034535473       -5.0488479355      -21.1613710464  SOLV      3218            0.0000000000
      9767      3229  TIP3      H1              8.1034231979       -4.7990599800      -20.6568329431  SOLV      3218            0.0000000000
      9768      3229  TIP3      H2              9.0801431841       -4.2256368395      -21.6627314272  SOLV      3218            0.0000000000
      9769      3230  TIP3      OH2            -3.5906098929        2.3595180138      -17.7488773730  SOLV      3219            0.0000000000
      9770      3230  TIP3      H1             -4.3040301233        2.8057700097      -18.2541451181  SOLV      3219            0.0000000000
      9771      3230  TIP3      H2             -3.9999431568        1.5110032827      -17.5481133792  SOLV      3219            0.0000000000
      9772      3231  TIP3      OH2             6.9631371184        8.5982143311      -25.6684998059  SOLV      3220            0.0000000000
      9773      3231  TIP3      H1              7.0501386702        9.5652995197      -25.8105099540  SOLV      3220            0.0000000000
      9774      3231  TIP3      H2              7.8924264296        8.3065390926      -25.7891047451  SOLV      3220            0.0000000000
      9775      3232  TIP3      OH2            -5.8059104425        6.2017949008       -8.5963992130  SOLV      3221            0.0000000000
      9776      3232  TIP3      H1             -6.4959250453        6.0053389278       -9.2641998942  SOLV      3221            0.0000000000
      9777      3232  TIP3      H2             -5.4383429672        5.3179882446       -8.3939466709  SOLV      3221            0.0000000000
      9778      3233  TIP3      OH2            -7.2624621081        8.1494418453      -12.3203333653  SOLV      3222            0.0000000000
      9779      3233  TIP3      H1             -6.2976905423        8.1029871915      -12.3635055131  SOLV      3222            0.0000000000
      9780      3233  TIP3      H2             -7.3916502927        8.9166557768      -11.7417496694  SOLV      3222            0.0000000000
      9781      3234  TIP3      OH2            11.3609422946       12.6697994281      -11.7026197344  SOLV      3223            0.0000000000
      9782      3234  TIP3      H1             11.3478342002       11.7093447283      -11.5384963351  SOLV      3223            0.0000000000
      9783      3234  TIP3      H2             10.5295563998       12.9310778509      -11.2442547527  SOLV      3223            0.0000000000
      9784      3235  TIP3      OH2             2.4294289555       10.4794351822      -10.3669812709  SOLV      3224            0.0000000000
      9785      3235  TIP3      H1              2.3902644116       11.4067626358      -10.0450085021  SOLV      3224            0.0000000000
      9786      3235  TIP3      H2              1.7098587388       10.0723917297       -9.8333657724  SOLV      3224            0.0000000000
      9787      3236  TIP3      OH2             0.0957159111       11.7814421387      -20.8597286001  SOLV      3225            0.0000000000
      9788      3236  TIP3      H1             -0.4144149914       11.6242626257      -21.6724926935  SOLV      3225            0.0000000000
      9789      3236  TIP3      H2             -0.2634881983       12.6338113754      -20.5468893739  SOLV      3225            0.0000000000
      9790      3237  TIP3      OH2            -5.5573300503       10.2577313688      -16.9879512389  SOLV      3226            0.0000000000
      9791      3237  TIP3      H1             -5.1019981586       10.1873166439      -16.1187767798  SOLV      3226            0.0000000000
      9792      3237  TIP3      H2             -6.0529899868        9.4199318128      -17.0036656999  SOLV      3226            0.0000000000
      9793      3238  TIP3      OH2             2.0476524227       10.8145989751      -24.4835224882  SOLV      3227            0.0000000000
      9794      3238  TIP3      H1              2.6399720531       10.1121548517      -24.8306614909  SOLV      3227            0.0000000000
      9795      3238  TIP3      H2              2.3934242185       10.9251232846      -23.5717599252  SOLV      3227            0.0000000000
      9796      3239  TIP3      OH2             2.5884216130       11.2896571917      -21.7982839895  SOLV      3228            0.0000000000
      9797      3239  TIP3      H1              1.7016754409       11.3958322477      -21.3848849950  SOLV      3228            0.0000000000
      9798      3239  TIP3      H2              3.0951301809       10.9243469585      -21.0546349792  SOLV      3228            0.0000000000
      9799      3240  TIP3      OH2             9.8080027403        3.9615301858       -8.7492786051  SOLV      3229            0.0000000000
      9800      3240  TIP3      H1              9.5569380877        3.9248509804       -9.6798635479  SOLV      3229            0.0000000000
      9801      3240  TIP3      H2             10.7289155182        3.6535427450       -8.7365104159  SOLV      3229            0.0000000000
      9802      3241  TIP3      OH2            -3.7738331582        8.0362285536       -8.7780995074  SOLV      3230            0.0000000000
      9803      3241  TIP3      H1             -3.2803518907        7.8749080394       -7.9486211265  SOLV      3230            0.0000000000
      9804      3241  TIP3      H2             -4.5166481026        7.4015656253       -8.6928823445  SOLV      3230            0.0000000000
      9805      3242  TIP3      OH2             0.2330945261       -3.7158663481      -10.8439657147  SOLV      3231            0.0000000000
      9806      3242  TIP3      H1             -0.6483556905       -4.0236802497      -11.1461608788  SOLV      3231            0.0000000000
      9807      3242  TIP3      H2             -0.0482043732       -2.9326545753      -10.3281601197  SOLV      3231            0.0000000000
      9808      3243  TIP3      OH2             5.5649410974       -2.6795489819       -8.8461248572  SOLV      3232            0.0000000000
      9809      3243  TIP3      H1              6.2421534684       -2.9304447807       -8.1828476545  SOLV      3232            0.0000000000
      9810      3243  TIP3      H2              4.7233128810       -2.8398331839       -8.3664133026  SOLV      3232            0.0000000000
      9811      3244  TIP3      OH2             7.9422221192        1.7604212242       -9.7694643835  SOLV      3233            0.0000000000
      9812      3244  TIP3      H1              7.5451373052        1.7525095436       -8.8728179321  SOLV      3233            0.0000000000
      9813      3244  TIP3      H2              7.7888846729        2.6844540959      -10.0482534119  SOLV      3233            0.0000000000
      9814      3245  TIP3      OH2             4.5553924112        2.9327059535      -24.1926776201  SOLV      3234            0.0000000000
      9815      3245  TIP3      H1              4.2004497693        2.7399251456      -25.0807299938  SOLV      3234            0.0000000000
      9816      3245  TIP3      H2              5.3961752459        3.3757752817      -24.4221641035  SOLV      3234            0.0000000000
      9817      3246  TIP3      OH2             1.6680668300       -3.2729586854      -21.1474899823  SOLV      3235            0.0000000000
      9818      3246  TIP3      H1              1.3125830155       -3.3152416759      -20.2371649310  SOLV      3235            0.0000000000
      9819      3246  TIP3      H2              1.2641772861       -4.0830126725      -21.5165126014  SOLV      3235            0.0000000000
      9820      3247  TIP3      OH2            -0.4126479110        1.4120509806      -10.6827236984  SOLV      3236            0.0000000000
      9821      3247  TIP3      H1             -0.9214423571        1.6152292029       -9.8685284863  SOLV      3236            0.0000000000
      9822      3247  TIP3      H2             -0.5770185038        2.2317314601      -11.2051591041  SOLV      3236            0.0000000000
      9823      3248  TIP3      OH2            -1.6116894393        0.2879281196      -15.5561882164  SOLV      3237            0.0000000000
      9824      3248  TIP3      H1             -2.5391800089        0.0380343457      -15.3527120086  SOLV      3237            0.0000000000
      9825      3248  TIP3      H2             -1.5150438875       -0.1279506110      -16.4425158570  SOLV      3237            0.0000000000
      9826      3249  TIP3      OH2             3.2912473564        1.1227879447      -18.2378862923  SOLV      3238            0.0000000000
      9827      3249  TIP3      H1              2.7949057229        1.8415812672      -18.6874192473  SOLV      3238            0.0000000000
      9828      3249  TIP3      H2              3.8470540384        0.7824553926      -18.9673180108  SOLV      3238            0.0000000000
      9829      3250  TIP3      OH2             5.0035039255        3.8997823909       -7.4252878920  SOLV      3239            0.0000000000
      9830      3250  TIP3      H1              4.7845330938        3.1978056986       -6.7708470167  SOLV      3239            0.0000000000
      9831      3250  TIP3      H2              5.9324262585        4.0788948444       -7.1841660460  SOLV      3239            0.0000000000
      9832      3251  TIP3      OH2             4.8618070853        1.4043019028      -15.8870343711  SOLV      3240            0.0000000000
      9833      3251  TIP3      H1              4.2149240327        1.7089321107      -16.5560852671  SOLV      3240            0.0000000000
      9834      3251  TIP3      H2              5.2005309984        0.6223502193      -16.3741066661  SOLV      3240            0.0000000000
      9835      3252  TIP3      OH2            -2.2475297161        1.6803198263       -8.6374328932  SOLV      3241            0.0000000000
      9836      3252  TIP3      H1             -2.0082583127        2.3241979472       -7.9548068570  SOLV      3241            0.0000000000
      9837      3252  TIP3      H2             -2.4017320005        0.8696756346       -8.1092210798  SOLV      3241            0.0000000000
      9838      3253  TIP3      OH2            -1.7591761135       -3.5099562345      -21.5062696880  SOLV      3242            0.0000000000
      9839      3253  TIP3      H1             -1.8708272881       -3.5081922686      -20.5347521708  SOLV      3242            0.0000000000
      9840      3253  TIP3      H2             -2.5190798016       -2.9545767535      -21.7732493540  SOLV      3242            0.0000000000
      9841      3254  TIP3      OH2            -6.3115884440       -3.1192328705      -12.8218239629  SOLV      3243            0.0000000000
      9842      3254  TIP3      H1             -5.6119550379       -2.7605216131      -12.2345937823  SOLV      3243            0.0000000000
      9843      3254  TIP3      H2             -5.8233242787       -3.3732180281      -13.6140925438  SOLV      3243            0.0000000000
      9844      3255  TIP3      OH2            -6.7131489460       -3.2817087522      -17.6185481074  SOLV      3244            0.0000000000
      9845      3255  TIP3      H1             -6.2445858247       -2.9137611806      -18.3976782232  SOLV      3244            0.0000000000
      9846      3255  TIP3      H2             -7.3114106413       -2.5341020150      -17.4236241635  SOLV      3244            0.0000000000
      9847      3256  TIP3      OH2             4.9045980823        3.8168831202      -11.6967445995  SOLV      3245            0.0000000000
      9848      3256  TIP3      H1              5.2364813886        3.0938342483      -12.2720298443  SOLV      3245            0.0000000000
      9849      3256  TIP3      H2              4.6431717905        3.2946046720      -10.9095796308  SOLV      3245            0.0000000000
      9850      3257  TIP3      OH2             1.7105853236       -1.5642329560      -14.9571408635  SOLV      3246            0.0000000000
      9851      3257  TIP3      H1              0.8559130236       -1.5591702234      -14.4769277743  SOLV      3246            0.0000000000
      9852      3257  TIP3      H2              2.3426497410       -1.5094271974      -14.2235331978  SOLV      3246            0.0000000000
      9853      3258  TIP3      OH2            -3.9906064605       -0.9073479777      -14.8939091863  SOLV      3247            0.0000000000
      9854      3258  TIP3      H1             -4.9346521315       -0.8182193564      -15.1717987612  SOLV      3247            0.0000000000
      9855      3258  TIP3      H2             -3.7899227144       -1.8377301799      -15.0982149061  SOLV      3247            0.0000000000
      9856      3259  TIP3      OH2            -1.3592962231       -1.0047627151      -17.9521139000  SOLV      3248            0.0000000000
      9857      3259  TIP3      H1             -0.4302774926       -0.8375808734      -18.1947504509  SOLV      3248            0.0000000000
      9858      3259  TIP3      H2             -1.8484111071       -0.7887456298      -18.7814026860  SOLV      3248            0.0000000000
      9859      3260  TIP3      OH2             6.3401439357       -1.0811332533      -12.9132326255  SOLV      3249            0.0000000000
      9860      3260  TIP3      H1              5.6493359342       -0.5505322025      -12.4728579027  SOLV      3249            0.0000000000
      9861      3260  TIP3      H2              5.7654990930       -1.6080736300      -13.5135296966  SOLV      3249            0.0000000000
      9862      3261  TIP3      OH2            -2.8150712810       -0.6563744039      -20.2047690985  SOLV      3250            0.0000000000
      9863      3261  TIP3      H1             -3.5389070632       -1.0865456313      -20.6923155821  SOLV      3250            0.0000000000
      9864      3261  TIP3      H2             -2.3073042113       -0.2610422493      -20.9443659889  SOLV      3250            0.0000000000
      9865      3262  TIP3      OH2             8.3296032561       16.1430820319      -10.6958240212  SOLV      3251            0.0000000000
      9866      3262  TIP3      H1              8.2775615939       16.4067818956      -11.6314087470  SOLV      3251            0.0000000000
      9867      3262  TIP3      H2              9.1039670950       16.6490133503      -10.3880092779  SOLV      3251            0.0000000000
      9868      3263  TIP3      OH2            -2.1373788907        7.2742230876       -6.5489310724  SOLV      3252            0.0000000000
      9869      3263  TIP3      H1             -1.3379597894        7.5404616914       -6.0535636858  SOLV      3252            0.0000000000
      9870      3263  TIP3      H2             -2.7738295703        7.1921698516       -5.8131218925  SOLV      3252            0.0000000000
      9871      3264  TIP3      OH2             2.4480717498        1.8012746101      -13.9669393635  SOLV      3253            0.0000000000
      9872      3264  TIP3      H1              3.2212475873        1.4178067330      -14.4040379051  SOLV      3253            0.0000000000
      9873      3264  TIP3      H2              2.4816163556        1.4013442459      -13.0763800509  SOLV      3253            0.0000000000
      9874      3265  TIP3      OH2            -2.3350174336       -3.3528523240      -15.1113184939  SOLV      3254            0.0000000000
      9875      3265  TIP3      H1             -2.7200164319       -4.0990693550      -14.5988540868  SOLV      3254            0.0000000000
      9876      3265  TIP3      H2             -1.9296679596       -3.8198138902      -15.8530606829  SOLV      3254            0.0000000000
      9877      3266  TIP3      OH2             2.2820794280        0.8668678142      -11.1278172966  SOLV      3255            0.0000000000
      9878      3266  TIP3      H1              1.3559583426        1.1512573112      -10.9708803320  SOLV      3255            0.0000000000
      9879      3266  TIP3      H2              2.7905592090        1.4884384100      -10.5735632731  SOLV      3255            0.0000000000
      9880      3267  TIP3      OH2            -0.3744875426        4.6379561882      -20.1182661259  SOLV      3256            0.0000000000
      9881      3267  TIP3      H1             -1.1033322308        3.9925900726      -20.2446057200  SOLV      3256            0.0000000000
      9882      3267  TIP3      H2             -0.5936187619        4.9888324953      -19.2187673255  SOLV      3256            0.0000000000
      9883      3268  TIP3      OH2             8.6052457256        7.0139706797      -13.8723067692  SOLV      3257            0.0000000000
      9884      3268  TIP3      H1              8.8376725324        7.5405917536      -14.6662186879  SOLV      3257            0.0000000000
      9885      3268  TIP3      H2              7.7578002439        6.5943019489      -14.1398527832  SOLV      3257            0.0000000000
      9886      3269  TIP3      OH2             4.1854340927       -2.2605931957      -21.4278855152  SOLV      3258            0.0000000000
      9887      3269  TIP3      H1              3.2213183281       -2.4526929362      -21.3520826857  SOLV      3258            0.0000000000
      9888      3269  TIP3      H2              4.2493657590       -1.3156265577      -21.1824829533  SOLV      3258            0.0000000000
      9889      3270  TIP3      OH2             3.5875903730        7.8425112720      -10.1431055560  SOLV      3259            0.0000000000
      9890      3270  TIP3      H1              3.9255251098        7.6827123405       -9.2526408687  SOLV      3259            0.0000000000
      9891      3270  TIP3      H2              3.2089704119        8.7364327737      -10.0725654541  SOLV      3259            0.0000000000
      9892      3271  TIP3      OH2             4.8626294365        0.2708269613      -20.4187999095  SOLV      3260            0.0000000000
      9893      3271  TIP3      H1              5.8266099808        0.3363540971      -20.2731868979  SOLV      3260            0.0000000000
      9894      3271  TIP3      H2              4.6687709089        1.0835710063      -20.9264235708  SOLV      3260            0.0000000000
      9895      3272  TIP3      OH2            -3.4328506544        4.9165258844      -13.3794047039  SOLV      3261            0.0000000000
      9896      3272  TIP3      H1             -3.0468625737        4.5886589404      -14.2166314714  SOLV      3261            0.0000000000
      9897      3272  TIP3      H2             -3.0361791426        4.3238574547      -12.7226419815  SOLV      3261            0.0000000000
      9898      3273  TIP3      OH2             1.0597685691        6.1466302484      -21.8858246226  SOLV      3262            0.0000000000
      9899      3273  TIP3      H1              0.5668937007        7.0015189799      -21.8679078073  SOLV      3262            0.0000000000
      9900      3273  TIP3      H2              0.5190450027        5.6049904496      -21.2700370704  SOLV      3262            0.0000000000
      9901      3274  TIP3      OH2            -4.6049918052        4.0496550536       -7.2233407110  SOLV      3263            0.0000000000
      9902      3274  TIP3      H1             -4.4708882305        3.9148293471       -6.2651005961  SOLV      3263            0.0000000000
      9903      3274  TIP3      H2             -5.3086420458        3.4024699178       -7.4060629543  SOLV      3263            0.0000000000
      9904      3275  TIP3      OH2             2.6060269338        5.2848858750       -7.0891445777  SOLV      3264            0.0000000000
      9905      3275  TIP3      H1              1.9855620401        4.5954208749       -7.3758525287  SOLV      3264            0.0000000000
      9906      3275  TIP3      H2              3.4685808241        4.8967137496       -7.3442986202  SOLV      3264            0.0000000000
      9907      3276  TIP3      OH2             5.1829707629       10.4468653959      -11.1684221527  SOLV      3265            0.0000000000
      9908      3276  TIP3      H1              4.2194904229       10.4397711123      -11.0245318641  SOLV      3265            0.0000000000
      9909      3276  TIP3      H2              5.4751851581       10.9723013431      -10.3931229055  SOLV      3265            0.0000000000
      9910      3277  TIP3      OH2             9.2407558084        1.2194442612      -22.0821063115  SOLV      3266            0.0000000000
      9911      3277  TIP3      H1              8.6396084459        0.7815054187      -22.7302648123  SOLV      3266            0.0000000000
      9912      3277  TIP3      H2              9.2215783268        2.1188977660      -22.4766819420  SOLV      3266            0.0000000000
      9913      3278  TIP3      OH2            11.4973634104        9.6928641824      -11.2742122884  SOLV      3267            0.0000000000
      9914      3278  TIP3      H1             10.5187302108        9.6358454129      -11.3463390408  SOLV      3267            0.0000000000
      9915      3278  TIP3      H2             11.7454947323        9.4331999214      -12.1899277072  SOLV      3267            0.0000000000
      9916      3279  TIP3      OH2             6.3348436770        9.3704687851      -22.9942920473  SOLV      3268            0.0000000000
      9917      3279  TIP3      H1              6.0287136606        8.7027158691      -22.3637051007  SOLV      3268            0.0000000000
      9918      3279  TIP3      H2              6.4380204811        8.8671250076      -23.8204706128  SOLV      3268            0.0000000000
      9919      3280  TIP3      OH2             6.2677093289        5.6664511129      -14.7117111866  SOLV      3269            0.0000000000
      9920      3280  TIP3      H1              5.3284735368        5.4372918967      -14.5655991328  SOLV      3269            0.0000000000
      9921      3280  TIP3      H2              6.5790496736        4.8607753382      -15.1696050137  SOLV      3269            0.0000000000
      9922      3281  TIP3      OH2            -2.4304071366        7.9395522916      -17.1406064454  SOLV      3270            0.0000000000
      9923      3281  TIP3      H1             -2.5037668957        8.7539730834      -17.6750319154  SOLV      3270            0.0000000000
      9924      3281  TIP3      H2             -3.3547038767        7.7606491395      -16.9349146634  SOLV      3270            0.0000000000
      9925      3282  TIP3      OH2            -6.7734749368        0.9620194093      -20.0409951162  SOLV      3271            0.0000000000
      9926      3282  TIP3      H1             -6.3588729455        1.8226512324      -19.8200105163  SOLV      3271            0.0000000000
      9927      3282  TIP3      H2             -7.5599456050        0.9814347101      -19.4487474382  SOLV      3271            0.0000000000
      9928      3283  TIP3      OH2            -1.1412969445        5.5538128884      -17.7126201619  SOLV      3272            0.0000000000
      9929      3283  TIP3      H1             -1.4743833306        6.4537790193      -17.5194910637  SOLV      3272            0.0000000000
      9930      3283  TIP3      H2             -1.4839339843        5.0533114275      -16.9492538416  SOLV      3272            0.0000000000
      9931      3284  TIP3      OH2             0.2630462989       11.3575700195      -12.4361584713  SOLV      3273            0.0000000000
      9932      3284  TIP3      H1              0.6824531761       12.0999777207      -12.9180623148  SOLV      3273            0.0000000000
      9933      3284  TIP3      H2              1.0260968734       10.9839054288      -11.9670955254  SOLV      3273            0.0000000000
      9934      3285  TIP3      OH2            -3.2818037612       10.3351524765      -18.6118218896  SOLV      3274            0.0000000000
      9935      3285  TIP3      H1             -4.1257582457       10.4198895840      -18.1234534415  SOLV      3274            0.0000000000
      9936      3285  TIP3      H2             -2.9549065601       11.2617607338      -18.5721755700  SOLV      3274            0.0000000000
      9937      3286  TIP3      OH2             4.0826273404        7.6813451881      -12.8124119674  SOLV      3275            0.0000000000
      9938      3286  TIP3      H1              3.9602123898        7.6906033137      -11.8351956932  SOLV      3275            0.0000000000
      9939      3286  TIP3      H2              4.9230941866        7.2110791454      -12.8910327494  SOLV      3275            0.0000000000
      9940      3287  TIP3      OH2             3.9100777895        6.6840542724      -23.9986605264  SOLV      3276            0.0000000000
      9941      3287  TIP3      H1              4.4461829885        6.4119901315      -23.2163884084  SOLV      3276            0.0000000000
      9942      3287  TIP3      H2              3.0322314123        6.3736080960      -23.7289403854  SOLV      3276            0.0000000000
      9943      3288  TIP3      OH2             6.5993853877       12.9854328023      -12.3453509682  SOLV      3277            0.0000000000
      9944      3288  TIP3      H1              5.7884858457       12.4420543798      -12.3934615779  SOLV      3277            0.0000000000
      9945      3288  TIP3      H2              6.4333973494       13.6358910245      -13.0634007547  SOLV      3277            0.0000000000
      9946      3289  TIP3      OH2             7.2688520073       11.3708217429      -25.8247052438  SOLV      3278            0.0000000000
      9947      3289  TIP3      H1              7.6488212083       12.1436195473      -26.2759915407  SOLV      3278            0.0000000000
      9948      3289  TIP3      H2              6.4523619971       11.7814021945      -25.4720479279  SOLV      3278            0.0000000000
      9949      3290  TIP3      OH2            -2.6174947647       -0.7835656264       -7.1981052923  SOLV      3279            0.0000000000
      9950      3290  TIP3      H1             -3.5916345469       -0.7285178455       -7.1020193427  SOLV      3279            0.0000000000
      9951      3290  TIP3      H2             -2.3805275210       -1.1926503724       -6.3512130209  SOLV      3279            0.0000000000
      9952      3291  TIP3      OH2             5.5182863642        5.9391828082      -21.8958503659  SOLV      3280            0.0000000000
      9953      3291  TIP3      H1              5.4042808125        5.3074044161      -21.1584172281  SOLV      3280            0.0000000000
      9954      3291  TIP3      H2              6.4941501539        5.9161991728      -21.9902325313  SOLV      3280            0.0000000000
      9955      3292  TIP3      OH2            -5.3619902141        9.9565119147      -10.8604567220  SOLV      3281            0.0000000000
      9956      3292  TIP3      H1             -4.8200036814        9.2630729784      -10.4469644615  SOLV      3281            0.0000000000
      9957      3292  TIP3      H2             -5.1145511060       10.7293052048      -10.3356357531  SOLV      3281            0.0000000000
      9958      3293  TIP3      OH2            -2.4841909123        6.4406804813      -24.0004894837  SOLV      3282            0.0000000000
      9959      3293  TIP3      H1             -2.3655641858        5.5053959995      -24.2489427864  SOLV      3282            0.0000000000
      9960      3293  TIP3      H2             -2.6872403695        6.3600160595      -23.0462674290  SOLV      3282            0.0000000000
      9961      3294  TIP3      OH2            -3.0371871634        6.5020172363      -21.2896217642  SOLV      3283            0.0000000000
      9962      3294  TIP3      H1             -2.3123106377        6.2302498925      -20.7101756764  SOLV      3283            0.0000000000
      9963      3294  TIP3      H2             -3.0079205140        7.4815599988      -21.1998776310  SOLV      3283            0.0000000000
      9964      3295  TIP3      OH2            -5.7074972030        3.4108867928      -19.2275035251  SOLV      3284            0.0000000000
      9965      3295  TIP3      H1             -6.3801453881        3.8616651977      -18.6712124381  SOLV      3284            0.0000000000
      9966      3295  TIP3      H2             -5.5921651758        4.0882485613      -19.9232679664  SOLV      3284            0.0000000000
      9967      3296  TIP3      OH2             6.4660216444       -0.5522865413      -10.2143056989  SOLV      3285            0.0000000000
      9968      3296  TIP3      H1              6.5992093411        0.3047932165       -9.7506705203  SOLV      3285            0.0000000000
      9969      3296  TIP3      H2              5.9216721856       -1.0532213286       -9.5596626205  SOLV      3285            0.0000000000
      9970      3297  TIP3      OH2             4.6676140140       -2.7634718581      -18.6079700468  SOLV      3286            0.0000000000
      9971      3297  TIP3      H1              4.5244707756       -2.5568542370      -19.5513401850  SOLV      3286            0.0000000000
      9972      3297  TIP3      H2              5.0544484119       -1.9254078553      -18.2734713446  SOLV      3286            0.0000000000
      9973      3298  TIP3      OH2            -0.3490171718        8.4482383324      -21.8181044820  SOLV      3287            0.0000000000
      9974      3298  TIP3      H1             -1.2188574320        8.6685299977      -21.4306555870  SOLV      3287            0.0000000000
      9975      3298  TIP3      H2             -0.2088703425        9.2316956890      -22.3713703670  SOLV      3287            0.0000000000
      9976      3299  TIP3      OH2             1.5057912726       -0.8995117828      -17.6375676515  SOLV      3288            0.0000000000
      9977      3299  TIP3      H1              2.1300667138       -0.1615025945      -17.8104506711  SOLV      3288            0.0000000000
      9978      3299  TIP3      H2              1.5573249270       -0.9679193421      -16.6609119700  SOLV      3288            0.0000000000
      9979      3300  TIP3      OH2             4.3291383203        2.2549843517       -9.5145696913  SOLV      3289            0.0000000000
      9980      3300  TIP3      H1              4.3596765083        2.9967609052       -8.8737736229  SOLV      3289            0.0000000000
      9981      3300  TIP3      H2              4.7454926912        1.5699385643       -8.9743770135  SOLV      3289            0.0000000000
      9982      3301  TIP3      OH2             2.9082703136       -3.6937987526      -16.6293508172  SOLV      3290            0.0000000000
      9983      3301  TIP3      H1              2.7211447326       -2.8770768229      -16.1259873877  SOLV      3290            0.0000000000
      9984      3301  TIP3      H2              3.5560700811       -3.3580848633      -17.2919907817  SOLV      3290            0.0000000000
      9985      3302  TIP3      OH2            -2.8759745740        9.2177726821      -21.0911628374  SOLV      3291            0.0000000000
      9986      3302  TIP3      H1             -3.1945291721        9.9214022294      -21.6980662880  SOLV      3291            0.0000000000
      9987      3302  TIP3      H2             -3.0515613828        9.6293558502      -20.2149122440  SOLV      3291            0.0000000000
      9988      3303  TIP3      OH2            -1.9224295458       -3.6337239297      -18.7448913816  SOLV      3292            0.0000000000
      9989      3303  TIP3      H1             -1.9540369932       -2.7363406564      -18.3560588524  SOLV      3292            0.0000000000
      9990      3303  TIP3      H2             -0.9593353100       -3.8019174225      -18.6696155603  SOLV      3292            0.0000000000
      9991      3304  TIP3      OH2            10.5861029343        0.9314928386       -9.9406088014  SOLV      3293            0.0000000000
      9992      3304  TIP3      H1              9.6672598105        1.2278750343       -9.7792982961  SOLV      3293            0.0000000000
      9993      3304  TIP3      H2             10.7594154744        1.2522917994      -10.8320730116  SOLV      3293            0.0000000000
      9994      3305  TIP3      OH2             7.1091887304        3.2156075432      -15.8936087949  SOLV      3294            0.0000000000
      9995      3305  TIP3      H1              6.3659459853        2.5919737560      -15.8099399471  SOLV      3294            0.0000000000
      9996      3305  TIP3      H2              7.8397848007        2.7535234260      -15.4291878873  SOLV      3294            0.0000000000
      9997      3306  TIP3      OH2            -5.7089771182        5.4350924611      -21.2002049567  SOLV      3295            0.0000000000
      9998      3306  TIP3      H1             -5.0000211721        6.0977400773      -21.1022945256  SOLV      3295            0.0000000000
      9999      3306  TIP3      H2             -5.2866696891        4.8573009297      -21.8734679241  SOLV      3295            0.0000000000
     10000      3307  TIP3      OH2            -6.3428038840       -1.7408766951      -19.8622047946  SOLV      3296            0.0000000000
     10001      3307  TIP3      H1             -6.2718992729       -0.7648743118      -19.8596482609  SOLV      3296            0.0000000000
     10002      3307  TIP3      H2             -7.2017570270       -1.8614172307      -20.2806998995  SOLV      3296            0.0000000000
     10003      3308  TIP3      OH2             6.8213524313       12.8118422915      -16.4309620743  SOLV      3297            0.0000000000
     10004      3308  TIP3      H1              6.3876618424       13.2742062380      -17.1833053336  SOLV      3297            0.0000000000
     10005      3308  TIP3      H2              7.7642211224       12.9966957871      -16.6406381175  SOLV      3297            0.0000000000
     10006      3309  TIP3      OH2            -2.3883482423       -4.5375890670      -11.1775870322  SOLV      3298            0.0000000000
     10007      3309  TIP3      H1             -2.7185031892       -4.8970422399      -12.0262423222  SOLV      3298            0.0000000000
     10008      3309  TIP3      H2             -2.5014164507       -5.3020674628      -10.5741008520  SOLV      3298            0.0000000000
     10009      3310  TIP3      OH2            -7.0854475793        7.6318116084      -17.3737103895  SOLV      3299            0.0000000000
     10010      3310  TIP3      H1             -7.6858822015        7.9254644411      -16.6734312339  SOLV      3299            0.0000000000
     10011      3310  TIP3      H2             -7.4686594479        8.0787174096      -18.1672251165  SOLV      3299            0.0000000000
     10012      3311  TIP3      OH2            -5.4397805867       13.1436411428       -6.5877275126  SOLV      3300            0.0000000000
     10013      3311  TIP3      H1             -4.5668277789       13.1478767599       -6.1334513922  SOLV      3300            0.0000000000
     10014      3311  TIP3      H2             -5.6200872267       12.1893197321       -6.6199886486  SOLV      3300            0.0000000000
     10015      3312  TIP3      OH2            -0.7025193089       12.6345368332       -6.1257248998  SOLV      3301            0.0000000000
     10016      3312  TIP3      H1              0.2536719362       12.4943742729       -6.1072656580  SOLV      3301            0.0000000000
     10017      3312  TIP3      H2             -0.9631381989       12.0271069042       -6.8486318447  SOLV      3301            0.0000000000
     10018      3313  TIP3      OH2            -0.8565970127        8.4489202771      -24.9288875036  SOLV      3302            0.0000000000
     10019      3313  TIP3      H1             -1.4112416801        7.7343672721      -24.5355865684  SOLV      3302            0.0000000000
     10020      3313  TIP3      H2             -0.0909561379        7.9326768000      -25.2361309416  SOLV      3302            0.0000000000
     10021      3314  TIP3      OH2             5.7309023852       11.7786526742       -8.8209467262  SOLV      3303            0.0000000000
     10022      3314  TIP3      H1              5.6648471324       11.0837786346       -8.1245912010  SOLV      3303            0.0000000000
     10023      3314  TIP3      H2              6.4958679036       12.3019729560       -8.5145970591  SOLV      3303            0.0000000000
     10024      3315  TIP3      OH2             3.5140396471        8.8295796217      -25.7401929686  SOLV      3304            0.0000000000
     10025      3315  TIP3      H1              3.8763569770        8.1684156591      -25.1152520156  SOLV      3304            0.0000000000
     10026      3315  TIP3      H2              4.1196289565        8.7595191407      -26.5009819678  SOLV      3304            0.0000000000
     10027      3316  TIP3      OH2            -4.1615862678        7.1785466319       -4.5968003133  SOLV      3305            0.0000000000
     10028      3316  TIP3      H1             -3.9498304907        6.2235409815       -4.5476788602  SOLV      3305            0.0000000000
     10029      3316  TIP3      H2             -5.0235932059        7.1642052679       -5.0663627744  SOLV      3305            0.0000000000
     10030      3317  TIP3      OH2            -4.3589974320        3.5917834090      -22.6469185462  SOLV      3306            0.0000000000
     10031      3317  TIP3      H1             -3.7890000955        3.3186634836      -21.9053198290  SOLV      3306            0.0000000000
     10032      3317  TIP3      H2             -3.6905665502        3.6558885903      -23.3639987905  SOLV      3306            0.0000000000
     10033      3318  TIP3      OH2             1.9032384737        8.0421610129       -6.8638471606  SOLV      3307            0.0000000000
     10034      3318  TIP3      H1              1.4864337266        8.2389507671       -7.7271654555  SOLV      3307            0.0000000000
     10035      3318  TIP3      H2              2.2012744480        7.1133038599       -6.9752525680  SOLV      3307            0.0000000000
     10036      3319  TIP3      OH2             0.8146831361        5.6407750815      -24.5773798502  SOLV      3308            0.0000000000
     10037      3319  TIP3      H1              0.8070396308        5.7470820232      -23.6036533048  SOLV      3308            0.0000000000
     10038      3319  TIP3      H2              0.7982831056        4.6613527028      -24.6496576932  SOLV      3308            0.0000000000
     10039      3320  TIP3      OH2             6.8207038875        8.1314533360      -10.8301276822  SOLV      3309            0.0000000000
     10040      3320  TIP3      H1              7.5916588983        8.5626307102      -11.2469135652  SOLV      3309            0.0000000000
     10041      3320  TIP3      H2              6.1374172355        8.8174874898      -10.9643644995  SOLV      3309            0.0000000000
     10042      3321  TIP3      OH2            -2.9464108575        4.6629342794       -4.7622898957  SOLV      3310            0.0000000000
     10043      3321  TIP3      H1             -2.4057758526        3.8713556653       -4.8726116876  SOLV      3310            0.0000000000
     10044      3321  TIP3      H2             -2.7106534115        4.8949838201       -3.8397746637  SOLV      3310            0.0000000000
     10045      3322  TIP3      OH2            -2.3398401112        2.7108896911      -20.4738491525  SOLV      3311            0.0000000000
     10046      3322  TIP3      H1             -2.6270162216        2.3363346091      -19.6232717508  SOLV      3311            0.0000000000
     10047      3322  TIP3      H2             -1.9573750966        1.9338134144      -20.9303694628  SOLV      3311            0.0000000000
     10048      3323  TIP3      OH2             0.4116969010        3.3282062964       -8.2160059681  SOLV      3312            0.0000000000
     10049      3323  TIP3      H1             -0.3824648837        3.9042116098       -8.1958457303  SOLV      3312            0.0000000000
     10050      3323  TIP3      H2              0.9140053646        3.6953979887       -8.9780428066  SOLV      3312            0.0000000000
     10051      3324  TIP3      OH2            -1.2809448583        0.6436491543      -22.0636750143  SOLV      3313            0.0000000000
     10052      3324  TIP3      H1             -1.5270373843        0.7570591650      -23.0053503182  SOLV      3313            0.0000000000
     10053      3324  TIP3      H2             -0.3030460107        0.6547159139      -22.1309256296  SOLV      3313            0.0000000000
     10054      3325  TIP3      OH2             5.5940961332        7.3516133316       -6.8466292458  SOLV      3314            0.0000000000
     10055      3325  TIP3      H1              6.3712218005        7.0212911146       -7.3165916945  SOLV      3314            0.0000000000
     10056      3325  TIP3      H2              5.5212456621        6.7151603482       -6.1112583252  SOLV      3314            0.0000000000
     10057      3326  TIP3      OH2             6.8771370173        3.9030947358      -25.3653093570  SOLV      3315            0.0000000000
     10058      3326  TIP3      H1              6.6898169842        3.4799038529      -26.2271352263  SOLV      3315            0.0000000000
     10059      3326  TIP3      H2              6.5386704964        4.8083667082      -25.5616548860  SOLV      3315            0.0000000000
     10060      3327  TIP3      OH2             1.6567260556        1.2110841918       -7.0202653329  SOLV      3316            0.0000000000
     10061      3327  TIP3      H1              1.6080945069        0.4109106499       -7.5776414416  SOLV      3316            0.0000000000
     10062      3327  TIP3      H2              1.1840368700        1.8857305605       -7.5554438142  SOLV      3316            0.0000000000
     10063      3328  TIP3      OH2             1.6671425349       -0.9495848729       -8.8926360006  SOLV      3317            0.0000000000
     10064      3328  TIP3      H1              1.8819048437       -0.4919518505       -9.7237889320  SOLV      3317            0.0000000000
     10065      3328  TIP3      H2              0.7185918953       -1.1696236739       -9.0187941376  SOLV      3317            0.0000000000
     10066      3329  TIP3      OH2             1.9143937888        4.3741585609      -10.2048556009  SOLV      3318            0.0000000000
     10067      3329  TIP3      H1              2.7604424546        4.6852876658      -10.5507593039  SOLV      3318            0.0000000000
     10068      3329  TIP3      H2              1.2920229961        5.0266207711      -10.5931687170  SOLV      3318            0.0000000000
     10069      3330  TIP3      OH2             7.7131330631        4.0426361797       -6.4086946758  SOLV      3319            0.0000000000
     10070      3330  TIP3      H1              8.1843433678        3.2241563898       -6.1890253955  SOLV      3319            0.0000000000
     10071      3330  TIP3      H2              8.3728437681        4.4971655651       -6.9619411171  SOLV      3319            0.0000000000
     10072      3331  TIP3      OH2             8.0852750180        6.6578863675       -8.9242936203  SOLV      3320            0.0000000000
     10073      3331  TIP3      H1              7.5690828359        7.2135273398       -9.5540993412  SOLV      3320            0.0000000000
     10074      3331  TIP3      H2              8.9921219418        6.7690723611       -9.2782012570  SOLV      3320            0.0000000000
     10075      3332  TIP3      OH2             0.4948969556        2.3635038496       -4.6691799707  SOLV      3321            0.0000000000
     10076      3332  TIP3      H1             -0.3447397080        2.0118070271       -4.3482237544  SOLV      3321            0.0000000000
     10077      3332  TIP3      H2              0.6759350107        1.8715485257       -5.4915702784  SOLV      3321            0.0000000000
     10078      3333  TIP3      OH2             2.9627562311       -3.3651880011       -8.1868949570  SOLV      3322            0.0000000000
     10079      3333  TIP3      H1              2.4656303594       -2.5382375004       -8.3660484527  SOLV      3322            0.0000000000
     10080      3333  TIP3      H2              2.2481030169       -4.0330475526       -8.2352570846  SOLV      3322            0.0000000000
     10081      3334  TIP3      OH2             4.1678560017        1.7305327606       -5.9802020489  SOLV      3323            0.0000000000
     10082      3334  TIP3      H1              4.1106839978        1.2537077277       -5.1306067878  SOLV      3323            0.0000000000
     10083      3334  TIP3      H2              3.2631606376        1.5446809102       -6.3186526978  SOLV      3323            0.0000000000
     10084      3335  TIP3      OH2             6.5319028043        1.0909317371       -7.4681776283  SOLV      3324            0.0000000000
     10085      3335  TIP3      H1              5.7795021844        1.1632704853       -6.8454774611  SOLV      3324            0.0000000000
     10086      3335  TIP3      H2              7.2557705742        0.9123254098       -6.8277067229  SOLV      3324            0.0000000000
     10087      3336  TIP3      OH2             8.5729071661        0.6937444260       -5.5434328389  SOLV      3325            0.0000000000
     10088      3336  TIP3      H1              8.8784545077       -0.2262994833       -5.6562920334  SOLV      3325            0.0000000000
     10089      3336  TIP3      H2              8.7910832985        0.8316681793       -4.6006112131  SOLV      3325            0.0000000000
     10090      3337  TIP3      OH2             4.0338559467       -3.2646539961       -5.6032830242  SOLV      3326            0.0000000000
     10091      3337  TIP3      H1              4.6223786754       -4.0368969259       -5.6480459125  SOLV      3326            0.0000000000
     10092      3337  TIP3      H2              3.5242950375       -3.3386882880       -6.4295065891  SOLV      3326            0.0000000000
     10093      3338  TIP3      OH2             4.6119788322       -0.7730867567       -4.3978488111  SOLV      3327            0.0000000000
     10094      3338  TIP3      H1              4.4128773039       -1.6682491878       -4.7389359630  SOLV      3327            0.0000000000
     10095      3338  TIP3      H2              3.7428959058       -0.5137800293       -4.0318540994  SOLV      3327            0.0000000000
     10096      3339  TIP3      OH2            -3.1902631092       11.2701263087      -22.9715948691  SOLV      3328            0.0000000000
     10097      3339  TIP3      H1             -2.2435703169       11.1403111730      -23.1700979027  SOLV      3328            0.0000000000
     10098      3339  TIP3      H2             -3.4562761952       11.7837526883      -23.7554404104  SOLV      3328            0.0000000000
     10099      3340  TIP3      OH2            -8.4192853004        5.0820224840      -20.8949801385  SOLV      3329            0.0000000000
     10100      3340  TIP3      H1             -7.4630022091        5.2745939676      -21.0057625131  SOLV      3329            0.0000000000
     10101      3340  TIP3      H2             -8.4809671661        4.1838789414      -21.2827751082  SOLV      3329            0.0000000000
     10102      3341  TIP3      OH2            -9.2289961673       11.1810301824      -16.6719529661  SOLV      3330            0.0000000000
     10103      3341  TIP3      H1             -9.8908774486       10.5726313941      -17.0697739109  SOLV      3330            0.0000000000
     10104      3341  TIP3      H2             -8.8015176003       10.5797688351      -16.0244715578  SOLV      3330            0.0000000000
     10105      3342  TIP3      OH2            -7.9032047806        9.6227700697      -14.8099718813  SOLV      3331            0.0000000000
     10106      3342  TIP3      H1             -8.0552516710        8.9439818890      -14.1291541579  SOLV      3331            0.0000000000
     10107      3342  TIP3      H2             -7.3716360517       10.2575625265      -14.2960264983  SOLV      3331            0.0000000000
     10108      3343  TIP3      OH2             9.3916846025       13.6592711699      -16.7868064054  SOLV      3332            0.0000000000
     10109      3343  TIP3      H1              9.6350589965       13.9555574653      -15.8903850828  SOLV      3332            0.0000000000
     10110      3343  TIP3      H2             10.0500831988       14.1036871634      -17.3411372430  SOLV      3332            0.0000000000
     10111      3344  TIP3      OH2             9.6602447835       13.8604736228      -13.9793086501  SOLV      3333            0.0000000000
     10112      3344  TIP3      H1              9.1798081593       13.0052148618      -14.0253391889  SOLV      3333            0.0000000000
     10113      3344  TIP3      H2             10.3781018459       13.6048861497      -13.3784850239  SOLV      3333            0.0000000000
     10114      3345  TIP3      OH2            10.0668087037       10.6834817743       -8.3076731698  SOLV      3334            0.0000000000
     10115      3345  TIP3      H1              9.3790140245       10.7677955933       -7.6163728772  SOLV      3334            0.0000000000
     10116      3345  TIP3      H2             10.5216054599       11.5468870944       -8.2347809322  SOLV      3334            0.0000000000
     10117      3346  TIP3      OH2             8.2940369224        5.7723745758      -22.0766331689  SOLV      3335            0.0000000000
     10118      3346  TIP3      H1              8.9467698225        6.4324683434      -22.3847047107  SOLV      3335            0.0000000000
     10119      3346  TIP3      H2              8.7484789905        5.4120704714      -21.2820088567  SOLV      3335            0.0000000000
     10120      3347  TIP3      OH2             9.5673216935        4.4565685983      -20.0254396693  SOLV      3336            0.0000000000
     10121      3347  TIP3      H1              8.8956528977        4.0540152900      -19.4333209374  SOLV      3336            0.0000000000
     10122      3347  TIP3      H2             10.2295154947        4.8033551963      -19.3919192350  SOLV      3336            0.0000000000
     10123      3348  TIP3      OH2            10.1378078450        8.4053530390      -15.7174716263  SOLV      3337            0.0000000000
     10124      3348  TIP3      H1             10.6520061962        7.7069831737      -16.1697099827  SOLV      3337            0.0000000000
     10125      3348  TIP3      H2             10.0976412947        9.1086643738      -16.3940423256  SOLV      3337            0.0000000000
     10126      3349  TIP3      OH2             8.3801748026       11.3941292583      -13.7866558262  SOLV      3338            0.0000000000
     10127      3349  TIP3      H1              7.6604728643       11.8078421678      -13.2700210250  SOLV      3338            0.0000000000
     10128      3349  TIP3      H2              7.8851580233       10.9444024878      -14.5049491556  SOLV      3338            0.0000000000
     10129      3350  TIP3      OH2             8.9225780798        3.5414336963      -23.5809642351  SOLV      3339            0.0000000000
     10130      3350  TIP3      H1              8.2024211476        3.5572095211      -24.2511134374  SOLV      3339            0.0000000000
     10131      3350  TIP3      H2              8.6389837778        4.2959627163      -23.0228285943  SOLV      3339            0.0000000000
     10132      3351  TIP3      OH2             7.6324992155        0.2615035775      -24.0566278633  SOLV      3340            0.0000000000
     10133      3351  TIP3      H1              7.1591017651        0.5940668018      -24.8267803757  SOLV      3340            0.0000000000
     10134      3351  TIP3      H2              7.4276938329       -0.6971476042      -24.1184179755  SOLV      3340            0.0000000000
     10135      3352  TIP3      OH2             7.6697321449        3.0652784064      -18.5862286594  SOLV      3341            0.0000000000
     10136      3352  TIP3      H1              7.7528282824        2.1020134753      -18.6782399261  SOLV      3341            0.0000000000
     10137      3352  TIP3      H2              7.5210621374        3.1761764525      -17.6209313602  SOLV      3341            0.0000000000
     10138      3353  TIP3      OH2            -6.0702030550        3.7667140519      -11.0866928225  SOLV      3342            0.0000000000
     10139      3353  TIP3      H1             -6.1096193208        3.4154807365      -12.0011904392  SOLV      3342            0.0000000000
     10140      3353  TIP3      H2             -5.0964312394        3.7613118218      -10.9346216577  SOLV      3342            0.0000000000
     10141      3354  TIP3      OH2            10.6915757809        7.1136801892       -9.9523739881  SOLV      3343            0.0000000000
     10142      3354  TIP3      H1             11.3754936063        6.4393665932      -10.0442780459  SOLV      3343            0.0000000000
     10143      3354  TIP3      H2             10.9730559895        7.8001139865      -10.5808613331  SOLV      3343            0.0000000000
     10144      3355  TIP3      OH2             7.0762174083       -2.4022005854      -24.2528696478  SOLV      3344            0.0000000000
     10145      3355  TIP3      H1              7.8250130201       -2.7119281333      -23.7007995721  SOLV      3344            0.0000000000
     10146      3355  TIP3      H2              6.3522852608       -3.0024670050      -24.0148497032  SOLV      3344            0.0000000000
     10147      3356  TIP3      OH2             7.6713179119        0.2070756679      -19.6603484138  SOLV      3345            0.0000000000
     10148      3356  TIP3      H1              8.0798592739       -0.6805843491      -19.5193341599  SOLV      3345            0.0000000000
     10149      3356  TIP3      H2              8.2448886289        0.5384838828      -20.3755927447  SOLV      3345            0.0000000000
     10150      3357  TIP3      OH2             9.2339115534        1.9351665693      -14.6535812491  SOLV      3346            0.0000000000
     10151      3357  TIP3      H1             10.0864820677        2.1483675326      -15.1021933014  SOLV      3346            0.0000000000
     10152      3357  TIP3      H2              9.4437987042        2.2816676420      -13.7674517070  SOLV      3346            0.0000000000
     10153      3358  TIP3      OH2             9.9750516800        3.4008190363      -12.2941892773  SOLV      3347            0.0000000000
     10154      3358  TIP3      H1              9.1423408744        3.7568092802      -11.9210205133  SOLV      3347            0.0000000000
     10155      3358  TIP3      H2             10.2852363955        4.1684270529      -12.8286610375  SOLV      3347            0.0000000000
     10156      3359  TIP3      OH2            -3.8287441655        0.2234323083       -4.2097873759  SOLV      3348            0.0000000000
     10157      3359  TIP3      H1             -2.9634396551        0.5999701367       -3.9986358822  SOLV      3348            0.0000000000
     10158      3359  TIP3      H2             -3.7180605649       -0.6458023214       -3.7687283204  SOLV      3348            0.0000000000
     10159      3360  TIP3      OH2            14.7855744757       -0.5366273275       -6.5172031602  SOLV      3349            0.0000000000
     10160      3360  TIP3      H1             15.2769693563       -1.1883789748       -7.0706852364  SOLV      3349            0.0000000000
     10161      3360  TIP3      H2             14.2531855812       -0.1124848063       -7.2338506302  SOLV      3349            0.0000000000
     10162      3361  TIP3      OH2             8.7411294694       -2.2927357367      -19.2311236161  SOLV      3350            0.0000000000
     10163      3361  TIP3      H1              9.2492099839       -2.4851029453      -18.4179497326  SOLV      3350            0.0000000000
     10164      3361  TIP3      H2              8.1318152405       -3.0588609716      -19.2533557777  SOLV      3350            0.0000000000
     10165      3362  TIP3      OH2            -4.2562488589       -2.4549463211      -11.1258996988  SOLV      3351            0.0000000000
     10166      3362  TIP3      H1             -3.6431650640       -3.2023807822      -10.9875074337  SOLV      3351            0.0000000000
     10167      3362  TIP3      H2             -3.6333182993       -1.7088710711      -11.1648550289  SOLV      3351            0.0000000000
     10168      3363  TIP3      OH2            -6.2895858155        0.2470449552      -10.3781188544  SOLV      3352            0.0000000000
     10169      3363  TIP3      H1             -5.7607103456        0.3089513085      -11.1976924959  SOLV      3352            0.0000000000
     10170      3363  TIP3      H2             -6.0145311190        1.0376565518       -9.8985006591  SOLV      3352            0.0000000000
     10171      3364  TIP3      OH2            13.1861687795        0.3841667051       -8.4640838083  SOLV      3353            0.0000000000
     10172      3364  TIP3      H1             12.7809754821        1.2625612354       -8.5534330856  SOLV      3353            0.0000000000
     10173      3364  TIP3      H2             12.7273755844       -0.1222821326       -9.1657407568  SOLV      3353            0.0000000000
     10174      3365  TIP3      OH2             9.4809294991       -2.9754437129      -22.9275682684  SOLV      3354            0.0000000000
     10175      3365  TIP3      H1              9.9571936264       -3.6917211058      -23.3947228831  SOLV      3354            0.0000000000
     10176      3365  TIP3      H2             10.1679133575       -2.2790043612      -22.8911992367  SOLV      3354            0.0000000000
     10177      3366  TIP3      OH2            -6.3924038430       -4.7730215941      -15.3833462653  SOLV      3355            0.0000000000
     10178      3366  TIP3      H1             -7.2920535273       -4.7744156961      -15.0141277704  SOLV      3355            0.0000000000
     10179      3366  TIP3      H2             -6.4759757421       -4.1280737525      -16.1172324079  SOLV      3355            0.0000000000
     10180      3367  TIP3      OH2             5.1858126015       12.3674878697      -20.2711777332  SOLV      3356            0.0000000000
     10181      3367  TIP3      H1              5.7344806434       12.3036967871      -21.0801222567  SOLV      3356            0.0000000000
     10182      3367  TIP3      H2              5.6750586423       13.0227162571      -19.7444883683  SOLV      3356            0.0000000000
     10183      3368  TIP3      OH2            -4.1839093584       -3.9230379456       -7.2311889943  SOLV      3357            0.0000000000
     10184      3368  TIP3      H1             -4.6430601525       -3.9268793749       -6.3675321818  SOLV      3357            0.0000000000
     10185      3368  TIP3      H2             -4.8767373503       -3.5118278045       -7.7826095093  SOLV      3357            0.0000000000
     10186      3369  TIP3      OH2            -3.8177481604       10.4519558246       -6.4422131850  SOLV      3358            0.0000000000
     10187      3369  TIP3      H1             -4.7449478064       10.1849055619       -6.5885791671  SOLV      3358            0.0000000000
     10188      3369  TIP3      H2             -3.6785957754       10.1913567047       -5.5239957501  SOLV      3358            0.0000000000
     10189      3370  TIP3      OH2            -1.9843705117       10.7509917608      -10.9318760952  SOLV      3359            0.0000000000
     10190      3370  TIP3      H1             -2.4729968622       11.5028645060      -11.3310499287  SOLV      3359            0.0000000000
     10191      3370  TIP3      H2             -1.1273580275       10.8928902755      -11.3837432984  SOLV      3359            0.0000000000
     10192      3371  TIP3      OH2             2.3926160348       13.1402820223       -9.5612839072  SOLV      3360            0.0000000000
     10193      3371  TIP3      H1              2.8159242008       13.1520275561       -8.6763232733  SOLV      3360            0.0000000000
     10194      3371  TIP3      H2              3.0341713989       13.6757185307      -10.0762803719  SOLV      3360            0.0000000000
     10195      3372  TIP3      OH2             4.1926091478       14.6956813619      -10.9199894295  SOLV      3361            0.0000000000
     10196      3372  TIP3      H1              4.9042579306       14.2028132158      -11.3500822741  SOLV      3361            0.0000000000
     10197      3372  TIP3      H2              4.7128164730       15.2666055957      -10.3109983888  SOLV      3361            0.0000000000
     10198      3373  TIP3      OH2            12.2643891608       -1.7576353361       -9.9925154381  SOLV      3362            0.0000000000
     10199      3373  TIP3      H1             11.4255410207       -1.7846470166      -10.4640558441  SOLV      3362            0.0000000000
     10200      3373  TIP3      H2             12.5906632551       -2.6868322969      -10.0827655878  SOLV      3362            0.0000000000
     10201      3374  TIP3      OH2            -5.2768829233       13.2759407823      -10.6596127737  SOLV      3363            0.0000000000
     10202      3374  TIP3      H1             -6.1770557964       13.6003846830      -10.8859451776  SOLV      3363            0.0000000000
     10203      3374  TIP3      H2             -5.0998180184       13.8037314541       -9.8685357571  SOLV      3363            0.0000000000
     10204      3375  TIP3      OH2            -2.9155408746       13.0295000146      -12.1046875162  SOLV      3364            0.0000000000
     10205      3375  TIP3      H1             -3.7899029349       13.1814644442      -11.6833580454  SOLV      3364            0.0000000000
     10206      3375  TIP3      H2             -3.0679545509       13.3922310972      -13.0008871404  SOLV      3364            0.0000000000
     10207      3376  TIP3      OH2             1.3562185693       13.3333461906      -14.1350563138  SOLV      3365            0.0000000000
     10208      3376  TIP3      H1              0.6342372415       13.5283810067      -14.7600514359  SOLV      3365            0.0000000000
     10209      3376  TIP3      H2              1.4628914236       14.2007263476      -13.6859002341  SOLV      3365            0.0000000000
     10210      3377  TIP3      OH2             4.0472310614       12.7210495056      -13.6064984409  SOLV      3366            0.0000000000
     10211      3377  TIP3      H1              3.1054253901       12.9103394732      -13.7918558193  SOLV      3366            0.0000000000
     10212      3377  TIP3      H2              4.4804232426       13.4906063126      -14.0086073123  SOLV      3366            0.0000000000
     10213      3378  TIP3      OH2             6.1321453274       14.6433393978      -14.4701923823  SOLV      3367            0.0000000000
     10214      3378  TIP3      H1              5.9829395115       15.4901143954      -14.9416354034  SOLV      3367            0.0000000000
     10215      3378  TIP3      H2              6.3820180939       14.0441561175      -15.2075996760  SOLV      3367            0.0000000000
     10216      3379  TIP3      OH2            -6.1381402843       11.2230096637      -13.2591311263  SOLV      3368            0.0000000000
     10217      3379  TIP3      H1             -5.8782550044       10.9353650832      -12.3580621177  SOLV      3368            0.0000000000
     10218      3379  TIP3      H2             -5.4150470908       10.7935914946      -13.7699031750  SOLV      3368            0.0000000000
     10219      3380  TIP3      OH2            -4.1792000483        9.9582892068      -14.6531654222  SOLV      3369            0.0000000000
     10220      3380  TIP3      H1             -4.0398504227        9.1232144496      -14.1446037294  SOLV      3369            0.0000000000
     10221      3380  TIP3      H2             -3.2647835405       10.3116983518      -14.6820241503  SOLV      3369            0.0000000000
     10222      3381  TIP3      OH2            -1.5035649934       10.8487908215      -14.5922514461  SOLV      3370            0.0000000000
     10223      3381  TIP3      H1             -1.2101051827        9.9188050473      -14.6561694262  SOLV      3370            0.0000000000
     10224      3381  TIP3      H2             -1.0282418700       11.1098180991      -13.7802891888  SOLV      3370            0.0000000000
     10225      3382  TIP3      OH2             4.2167425317       -2.6065577993      -13.6972201866  SOLV      3371            0.0000000000
     10226      3382  TIP3      H1              3.7322328648       -3.2922879599      -13.2018676095  SOLV      3371            0.0000000000
     10227      3382  TIP3      H2              4.8370993144       -3.1318133498      -14.2379774474  SOLV      3371            0.0000000000
     10228      3383  TIP3      OH2             9.3139841526       -3.3956403965      -14.4794099850  SOLV      3372            0.0000000000
     10229      3383  TIP3      H1              9.8064925351       -3.1650436698      -15.2961610854  SOLV      3372            0.0000000000
     10230      3383  TIP3      H2              8.4155335809       -3.5473948697      -14.8194221450  SOLV      3372            0.0000000000
     10231      3384  TIP3      OH2            10.3593396346       -2.8102472523      -16.9964220612  SOLV      3373            0.0000000000
     10232      3384  TIP3      H1             11.0760391352       -3.3430802218      -17.4083833909  SOLV      3373            0.0000000000
     10233      3384  TIP3      H2             10.7242935416       -1.9110107730      -17.1762747813  SOLV      3373            0.0000000000
     10234      3385  TIP3      OH2            -3.3107755151       -5.4830846308      -13.6540365063  SOLV      3374            0.0000000000
     10235      3385  TIP3      H1             -4.2344595679       -5.8103757496      -13.5802879807  SOLV      3374            0.0000000000
     10236      3385  TIP3      H2             -2.8298405314       -6.3375253099      -13.6841556318  SOLV      3374            0.0000000000
     10237      3386  TIP3      OH2            -5.4330219362       -6.7537803298      -17.1315601503  SOLV      3375            0.0000000000
     10238      3386  TIP3      H1             -5.1398936170       -6.1697599207      -17.8521184124  SOLV      3375            0.0000000000
     10239      3386  TIP3      H2             -5.7065266886       -6.1022462252      -16.4496779745  SOLV      3375            0.0000000000
     10240      3387  TIP3      OH2             1.1822483999       -5.1956347369      -14.8054714356  SOLV      3376            0.0000000000
     10241      3387  TIP3      H1              1.7446598348       -4.6953322699      -15.4193755485  SOLV      3376            0.0000000000
     10242      3387  TIP3      H2              1.3318390704       -4.7305133923      -13.9711902689  SOLV      3376            0.0000000000
     10243      3388  TIP3      OH2             6.5084130508       -3.7136725776      -15.0296895222  SOLV      3377            0.0000000000
     10244      3388  TIP3      H1              6.5873333053       -4.1305095506      -15.8986849381  SOLV      3377            0.0000000000
     10245      3388  TIP3      H2              6.4643969717       -4.4967909040      -14.4332001293  SOLV      3377            0.0000000000
     10246      3389  TIP3      OH2             6.8957427481       -4.4043537087      -19.3264874311  SOLV      3378            0.0000000000
     10247      3389  TIP3      H1              6.0391982713       -3.9739411773      -19.1442716555  SOLV      3378            0.0000000000
     10248      3389  TIP3      H2              6.7582723841       -5.2773262537      -18.9003799926  SOLV      3378            0.0000000000
     10249      3390  TIP3      OH2            -8.2440826254        8.9884798433      -19.4047564977  SOLV      3379            0.0000000000
     10250      3390  TIP3      H1             -9.1039328203        8.6422736979      -19.7107182744  SOLV      3379            0.0000000000
     10251      3390  TIP3      H2             -8.3640865923        9.9295819235      -19.6199975476  SOLV      3379            0.0000000000
     10252      3391  TIP3      OH2            -4.2250995166       -5.1884471528      -19.5196361786  SOLV      3380            0.0000000000
     10253      3391  TIP3      H1             -3.7451058433       -5.8122389731      -20.0971338704  SOLV      3380            0.0000000000
     10254      3391  TIP3      H2             -3.4915281508       -4.6476491905      -19.1631492338  SOLV      3380            0.0000000000
     10255      3392  TIP3      OH2             0.8460020524       -3.4009467177      -18.5177369633  SOLV      3381            0.0000000000
     10256      3392  TIP3      H1              1.4396783597       -3.8798991563      -17.9158482848  SOLV      3381            0.0000000000
     10257      3392  TIP3      H2              1.0710544588       -2.4768614044      -18.2659783152  SOLV      3381            0.0000000000
     10258      3393  TIP3      OH2            -0.5424546515       10.7770896614      -23.5262764249  SOLV      3382            0.0000000000
     10259      3393  TIP3      H1              0.3416612502       11.0063923520      -23.8811488779  SOLV      3382            0.0000000000
     10260      3393  TIP3      H2             -0.7595816083       10.0286056760      -24.1282613516  SOLV      3382            0.0000000000
     10261      3394  TIP3      OH2             6.6877958560       12.0436094264      -22.5782886527  SOLV      3383            0.0000000000
     10262      3394  TIP3      H1              6.6058774590       11.0630127073      -22.6606982596  SOLV      3383            0.0000000000
     10263      3394  TIP3      H2              6.1988442791       12.3305699934      -23.3755897324  SOLV      3383            0.0000000000
     10264      3395  TIP3      OH2             1.4676740878       -2.6666530990       -3.6716607316  SOLV      3384            0.0000000000
     10265      3395  TIP3      H1              2.1812906038       -3.3069767444       -3.7632529916  SOLV      3384            0.0000000000
     10266      3395  TIP3      H2              0.7818608468       -3.1359518682       -3.1829319109  SOLV      3384            0.0000000000
     10267      3396  TIP3      OH2            -7.5025292235        9.2038834025      -22.9807129409  SOLV      3385            0.0000000000
     10268      3396  TIP3      H1             -7.5178898353        9.3090472888      -22.0186446683  SOLV      3385            0.0000000000
     10269      3396  TIP3      H2             -6.6318194600        8.7664298734      -23.1280618969  SOLV      3385            0.0000000000
     10270      3397  TIP3      OH2             9.5716205560       -2.0325830221       -5.6522585551  SOLV      3386            0.0000000000
     10271      3397  TIP3      H1              9.6364954786       -2.5267922370       -4.8179449256  SOLV      3386            0.0000000000
     10272      3397  TIP3      H2             10.4790430049       -2.1193620653       -6.0064352504  SOLV      3386            0.0000000000
     10273      3398  TIP3      OH2             8.8847480955       13.4443624346      -10.7302877685  SOLV      3387            0.0000000000
     10274      3398  TIP3      H1              8.0977636642       13.1422227252      -11.2290421485  SOLV      3387            0.0000000000
     10275      3398  TIP3      H2              8.6789717938       14.3972452475      -10.6390829386  SOLV      3387            0.0000000000
     10276      3399  TIP3      OH2            21.5893434703        7.2078204143      -23.0973742736  SOLV      3388            0.0000000000
     10277      3399  TIP3      H1             21.2579547609        8.1034511762      -23.3113418014  SOLV      3388            0.0000000000
     10278      3399  TIP3      H2             20.8424460864        6.6682244406      -23.4116168668  SOLV      3388            0.0000000000
     10279      3400  TIP3      OH2            21.5417748781        7.2175358170      -19.1620924902  SOLV      3389            0.0000000000
     10280      3400  TIP3      H1             21.9318733895        6.9620722361      -18.3050403551  SOLV      3389            0.0000000000
     10281      3400  TIP3      H2             21.1737061365        6.3694737321      -19.4634965145  SOLV      3389            0.0000000000
     10282      3401  TIP3      OH2            14.5261894933        6.1005597063      -15.5403873342  SOLV      3390            0.0000000000
     10283      3401  TIP3      H1             14.8275503504        5.4022473831      -14.9283423582  SOLV      3390            0.0000000000
     10284      3401  TIP3      H2             15.3516434042        6.5849329543      -15.6855083766  SOLV      3390            0.0000000000
     10285      3402  TIP3      OH2            24.0268802971       10.2627041419      -22.4075677464  SOLV      3391            0.0000000000
     10286      3402  TIP3      H1             23.8636754867        9.5391890132      -21.7874624258  SOLV      3391            0.0000000000
     10287      3402  TIP3      H2             24.3485406153       10.9707232730      -21.8248684223  SOLV      3391            0.0000000000
     10288      3403  TIP3      OH2            14.2960304001       10.2355456632      -18.3938123755  SOLV      3392            0.0000000000
     10289      3403  TIP3      H1             14.2109085525        9.2574810245      -18.3853572650  SOLV      3392            0.0000000000
     10290      3403  TIP3      H2             15.2643932939       10.3264602966      -18.4347665915  SOLV      3392            0.0000000000
     10291      3404  TIP3      OH2            11.3464401305        2.2130122725      -20.5663254178  SOLV      3393            0.0000000000
     10292      3404  TIP3      H1             10.8857715363        3.0433035760      -20.3561661013  SOLV      3393            0.0000000000
     10293      3404  TIP3      H2             10.6256873840        1.7170169433      -20.9959020622  SOLV      3393            0.0000000000
     10294      3405  TIP3      OH2            11.9108896050        5.1080600179      -18.7186932951  SOLV      3394            0.0000000000
     10295      3405  TIP3      H1             12.4088539150        4.3201282535      -18.4020925385  SOLV      3394            0.0000000000
     10296      3405  TIP3      H2             12.5362104976        5.4964247969      -19.3451352746  SOLV      3394            0.0000000000
     10297      3406  TIP3      OH2            20.5672266801       14.8333945009      -22.2241592765  SOLV      3395            0.0000000000
     10298      3406  TIP3      H1             20.9550389373       14.1278966450      -22.7827902374  SOLV      3395            0.0000000000
     10299      3406  TIP3      H2             20.4576161000       14.3708332845      -21.3839565954  SOLV      3395            0.0000000000
     10300      3407  TIP3      OH2            19.5493820959        9.4621044275      -18.7546394411  SOLV      3396            0.0000000000
     10301      3407  TIP3      H1             19.9648560380        8.6645110140      -19.1296889574  SOLV      3396            0.0000000000
     10302      3407  TIP3      H2             20.3699377662        9.9450096924      -18.5165877045  SOLV      3396            0.0000000000
     10303      3408  TIP3      OH2            29.6486315097        2.6647830873      -18.7047288810  SOLV      3397            0.0000000000
     10304      3408  TIP3      H1             30.0033352670        3.5654758647      -18.6148245679  SOLV      3397            0.0000000000
     10305      3408  TIP3      H2             29.7345409674        2.5388697697      -19.6693981661  SOLV      3397            0.0000000000
     10306      3409  TIP3      OH2            23.6600969002        4.4956683916      -18.4776098771  SOLV      3398            0.0000000000
     10307      3409  TIP3      H1             24.1173380516        3.6602448689      -18.2482027650  SOLV      3398            0.0000000000
     10308      3409  TIP3      H2             23.3312059508        4.2781123786      -19.3711830372  SOLV      3398            0.0000000000
     10309      3410  TIP3      OH2            17.0646284807        1.0376417995      -18.7989435882  SOLV      3399            0.0000000000
     10310      3410  TIP3      H1             16.9049950183        1.7436923542      -19.4581277819  SOLV      3399            0.0000000000
     10311      3410  TIP3      H2             16.5882869130        0.2908386306      -19.2220102136  SOLV      3399            0.0000000000
     10312      3411  TIP3      OH2            24.1138720399        1.9917895428      -22.5177558552  SOLV      3400            0.0000000000
     10313      3411  TIP3      H1             24.6942106389        1.4406575544      -21.9690092718  SOLV      3400            0.0000000000
     10314      3411  TIP3      H2             24.7219580424        2.2828038572      -23.2248021138  SOLV      3400            0.0000000000
     10315      3412  TIP3      OH2            13.4004348726        3.0432722302      -17.7279602451  SOLV      3401            0.0000000000
     10316      3412  TIP3      H1             14.2276245671        2.8638771899      -17.2396084767  SOLV      3401            0.0000000000
     10317      3412  TIP3      H2             13.5620581764        2.4945445425      -18.5264570329  SOLV      3401            0.0000000000
     10318      3413  TIP3      OH2            17.7863905588        5.0288519139      -19.7127659970  SOLV      3402            0.0000000000
     10319      3413  TIP3      H1             18.7384663686        4.8053541428      -19.6210629152  SOLV      3402            0.0000000000
     10320      3413  TIP3      H2             17.4217445556        4.1857437048      -20.0598245477  SOLV      3402            0.0000000000
     10321      3414  TIP3      OH2            30.5561144831        4.9014678151      -17.0382422366  SOLV      3403            0.0000000000
     10322      3414  TIP3      H1             29.6760287458        5.2608694589      -17.2757982965  SOLV      3403            0.0000000000
     10323      3414  TIP3      H2             30.5822161543        5.1148924474      -16.0940558856  SOLV      3403            0.0000000000
     10324      3415  TIP3      OH2            17.0335297509        0.8907972506      -14.4530068490  SOLV      3404            0.0000000000
     10325      3415  TIP3      H1             16.4354360625        1.2431318534      -15.1384472836  SOLV      3404            0.0000000000
     10326      3415  TIP3      H2             16.4950510364        1.0467784553      -13.6504207169  SOLV      3404            0.0000000000
     10327      3416  TIP3      OH2            20.4389161664        9.3970232041      -24.3893912003  SOLV      3405            0.0000000000
     10328      3416  TIP3      H1             20.0442999744        9.2594801068      -25.2618805555  SOLV      3405            0.0000000000
     10329      3416  TIP3      H2             19.9760457862       10.2099658706      -24.0975426910  SOLV      3405            0.0000000000
     10330      3417  TIP3      OH2            18.1023980530        8.6478448651      -16.5603024274  SOLV      3406            0.0000000000
     10331      3417  TIP3      H1             17.5171093442        9.3442453852      -16.1905072509  SOLV      3406            0.0000000000
     10332      3417  TIP3      H2             18.5326118356        9.1173390066      -17.3060827972  SOLV      3406            0.0000000000
     10333      3418  TIP3      OH2            15.7455084781        2.0327816080      -16.6191243904  SOLV      3407            0.0000000000
     10334      3418  TIP3      H1             16.3820222902        2.7410142014      -16.3727075273  SOLV      3407            0.0000000000
     10335      3418  TIP3      H2             16.2348797873        1.6237304976      -17.3718744533  SOLV      3407            0.0000000000
     10336      3419  TIP3      OH2            16.4032957648       10.6308040691      -15.5254461712  SOLV      3408            0.0000000000
     10337      3419  TIP3      H1             16.1384811678       11.5072610129      -15.8705268130  SOLV      3408            0.0000000000
     10338      3419  TIP3      H2             15.6120918992       10.4300066176      -14.9802906478  SOLV      3408            0.0000000000
     10339      3420  TIP3      OH2            10.2765588783        7.5090642776      -23.1813135646  SOLV      3409            0.0000000000
     10340      3420  TIP3      H1              9.8755924280        7.8160665793      -24.0135219280  SOLV      3409            0.0000000000
     10341      3420  TIP3      H2             10.6171075325        8.3496535234      -22.8086948956  SOLV      3409            0.0000000000
     10342      3421  TIP3      OH2            24.6872281608       12.6895473351      -20.7630673260  SOLV      3410            0.0000000000
     10343      3421  TIP3      H1             23.7880626242       12.5847856516      -20.3756935277  SOLV      3410            0.0000000000
     10344      3421  TIP3      H2             24.5910961348       13.5464456311      -21.2236195391  SOLV      3410            0.0000000000
     10345      3422  TIP3      OH2            27.5939702044        1.5822963190      -17.1396947502  SOLV      3411            0.0000000000
     10346      3422  TIP3      H1             26.7475058815        1.7755441345      -17.5825009299  SOLV      3411            0.0000000000
     10347      3422  TIP3      H2             28.2334832180        1.9033533801      -17.8134086035  SOLV      3411            0.0000000000
     10348      3423  TIP3      OH2            20.5510151406       -1.9230794046      -17.3180429158  SOLV      3412            0.0000000000
     10349      3423  TIP3      H1             20.4681740979       -2.8726373298      -17.0558331019  SOLV      3412            0.0000000000
     10350      3423  TIP3      H2             19.7735339487       -1.5608001877      -16.8410321989  SOLV      3412            0.0000000000
     10351      3424  TIP3      OH2            21.6650262202       13.0993476582      -24.1054889745  SOLV      3413            0.0000000000
     10352      3424  TIP3      H1             22.1628659884       12.2603466465      -24.2545453857  SOLV      3413            0.0000000000
     10353      3424  TIP3      H2             22.3257309781       13.7342326641      -24.4677994013  SOLV      3413            0.0000000000
     10354      3425  TIP3      OH2            23.1400085616       10.9485864988      -24.9201557515  SOLV      3414            0.0000000000
     10355      3425  TIP3      H1             22.7722058330       10.1297541973      -25.2772919214  SOLV      3414            0.0000000000
     10356      3425  TIP3      H2             23.5338371733       10.6317131407      -24.0755795344  SOLV      3414            0.0000000000
     10357      3426  TIP3      OH2            26.9686187162       11.7452613828      -17.3288932667  SOLV      3415            0.0000000000
     10358      3426  TIP3      H1             26.8216963985       10.9704566943      -17.9159719167  SOLV      3415            0.0000000000
     10359      3426  TIP3      H2             26.7834208124       12.4903073331      -17.9378295860  SOLV      3415            0.0000000000
     10360      3427  TIP3      OH2            19.8802292318        5.7143664120      -24.7150176124  SOLV      3416            0.0000000000
     10361      3427  TIP3      H1             19.0948000391        6.2472454412      -24.9488798802  SOLV      3416            0.0000000000
     10362      3427  TIP3      H2             20.3497153375        5.6561606141      -25.5684955961  SOLV      3416            0.0000000000
     10363      3428  TIP3      OH2            19.4591185204        3.5837761220      -27.6378673409  SOLV      3417            0.0000000000
     10364      3428  TIP3      H1             20.1178282660        4.1116872852      -27.1509903252  SOLV      3417            0.0000000000
     10365      3428  TIP3      H2             20.0581212519        2.9802740933      -28.1284642459  SOLV      3417            0.0000000000
     10366      3429  TIP3      OH2            28.9010405304        8.2208912554      -18.8047384329  SOLV      3418            0.0000000000
     10367      3429  TIP3      H1             28.0368275440        8.6872262273      -18.7982246719  SOLV      3418            0.0000000000
     10368      3429  TIP3      H2             29.1803695520        8.3846320444      -19.7305165038  SOLV      3418            0.0000000000
     10369      3430  TIP3      OH2            23.3794215057        6.5547411265      -25.0650486128  SOLV      3419            0.0000000000
     10370      3430  TIP3      H1             22.8379931658        6.7723424445      -24.2705656682  SOLV      3419            0.0000000000
     10371      3430  TIP3      H2             24.2240201962        6.2988755468      -24.6376399852  SOLV      3419            0.0000000000
     10372      3431  TIP3      OH2            25.6723913717        6.8981834942      -15.8550244274  SOLV      3420            0.0000000000
     10373      3431  TIP3      H1             25.6248086570        7.7322743029      -15.3546578495  SOLV      3420            0.0000000000
     10374      3431  TIP3      H2             24.8103525308        6.9158520230      -16.3182477129  SOLV      3420            0.0000000000
     10375      3432  TIP3      OH2            15.7004319069        6.4912132186      -20.8468925064  SOLV      3421            0.0000000000
     10376      3432  TIP3      H1             15.2913651536        5.9055589002      -21.5190787775  SOLV      3421            0.0000000000
     10377      3432  TIP3      H2             16.4487084111        5.9438563983      -20.5254567788  SOLV      3421            0.0000000000
     10378      3433  TIP3      OH2            16.9982831640       10.6393193543      -19.3975113220  SOLV      3422            0.0000000000
     10379      3433  TIP3      H1             16.7939747680       10.2884942705      -20.2784366019  SOLV      3422            0.0000000000
     10380      3433  TIP3      H2             17.8799250793       10.2481920752      -19.2216352076  SOLV      3422            0.0000000000
     10381      3434  TIP3      OH2            16.9680734830        6.2309984340      -17.3105556022  SOLV      3423            0.0000000000
     10382      3434  TIP3      H1             17.3301356713        5.9250355171      -18.1707958781  SOLV      3423            0.0000000000
     10383      3434  TIP3      H2             17.4573177024        7.0672605122      -17.1569912670  SOLV      3423            0.0000000000
     10384      3435  TIP3      OH2            22.2773976770       12.6114610290      -19.5425773270  SOLV      3424            0.0000000000
     10385      3435  TIP3      H1             22.1795459103       13.3856435455      -18.9622612352  SOLV      3424            0.0000000000
     10386      3435  TIP3      H2             22.1260958119       11.8588142487      -18.9347268163  SOLV      3424            0.0000000000
     10387      3436  TIP3      OH2            18.4379223302       11.7893249753      -14.0691503737  SOLV      3425            0.0000000000
     10388      3436  TIP3      H1             17.8082148532       12.3835928892      -13.6070153973  SOLV      3425            0.0000000000
     10389      3436  TIP3      H2             17.8088008136       11.2446773497      -14.5873172455  SOLV      3425            0.0000000000
     10390      3437  TIP3      OH2            21.7013307255        5.1446401190      -26.7384190341  SOLV      3426            0.0000000000
     10391      3437  TIP3      H1             22.3196117938        5.7309694651      -26.2475999842  SOLV      3426            0.0000000000
     10392      3437  TIP3      H2             21.9811855628        5.3463311406      -27.6678586058  SOLV      3426            0.0000000000
     10393      3438  TIP3      OH2            16.0147829585        7.3561348220      -13.0374441056  SOLV      3427            0.0000000000
     10394      3438  TIP3      H1             16.0560740441        8.2231418107      -12.5859359427  SOLV      3427            0.0000000000
     10395      3438  TIP3      H2             15.0622360204        7.1622661184      -12.9552456149  SOLV      3427            0.0000000000
     10396      3439  TIP3      OH2            19.2067132173       11.8769897132      -24.0264901788  SOLV      3428            0.0000000000
     10397      3439  TIP3      H1             20.0513064970       12.3670172149      -23.9761214441  SOLV      3428            0.0000000000
     10398      3439  TIP3      H2             18.6156590522       12.5205494463      -24.4355787020  SOLV      3428            0.0000000000
     10399      3440  TIP3      OH2            16.3519972514       13.4306313790      -13.1891073021  SOLV      3429            0.0000000000
     10400      3440  TIP3      H1             15.9995262849       13.4656879254      -14.0985885721  SOLV      3429            0.0000000000
     10401      3440  TIP3      H2             15.5468269610       13.2194650441      -12.6643529224  SOLV      3429            0.0000000000
     10402      3441  TIP3      OH2            26.8541620673       -2.4855453628      -26.3244247000  SOLV      3430            0.0000000000
     10403      3441  TIP3      H1             26.0717539744       -2.2587605876      -25.7763415611  SOLV      3430            0.0000000000
     10404      3441  TIP3      H2             27.0565049292       -1.6225343699      -26.7297253123  SOLV      3430            0.0000000000
     10405      3442  TIP3      OH2            14.3605230640        4.9481372392      -22.8337298080  SOLV      3431            0.0000000000
     10406      3442  TIP3      H1             13.6342413127        5.3394328830      -23.3626537960  SOLV      3431            0.0000000000
     10407      3442  TIP3      H2             14.0484089994        4.0462714519      -22.6995369155  SOLV      3431            0.0000000000
     10408      3443  TIP3      OH2            24.6062385331       11.4407978388      -30.8116180988  SOLV      3432            0.0000000000
     10409      3443  TIP3      H1             24.4589017191       12.2954164998      -31.2485777470  SOLV      3432            0.0000000000
     10410      3443  TIP3      H2             25.5445574688       11.2748911905      -31.0514982247  SOLV      3432            0.0000000000
     10411      3444  TIP3      OH2            12.1363028082        8.8125718131      -13.7497000950  SOLV      3433            0.0000000000
     10412      3444  TIP3      H1             11.4568046564        8.5876633963      -14.4180557839  SOLV      3433            0.0000000000
     10413      3444  TIP3      H2             12.5085304395        7.9380989898      -13.5085650906  SOLV      3433            0.0000000000
     10414      3445  TIP3      OH2            10.6970096063       10.7096627361      -17.4572212852  SOLV      3434            0.0000000000
     10415      3445  TIP3      H1             11.6611350455       10.6529601277      -17.5052152841  SOLV      3434            0.0000000000
     10416      3445  TIP3      H2             10.5779630934       11.4745878743      -16.8733995511  SOLV      3434            0.0000000000
     10417      3446  TIP3      OH2            29.2954367991       15.2594405076      -16.8706906718  SOLV      3435            0.0000000000
     10418      3446  TIP3      H1             29.3169035423       14.2939842966      -16.7205142723  SOLV      3435            0.0000000000
     10419      3446  TIP3      H2             28.4705327085       15.4898526153      -16.3865845135  SOLV      3435            0.0000000000
     10420      3447  TIP3      OH2            20.3743255569       13.0697241906      -15.4998221168  SOLV      3436            0.0000000000
     10421      3447  TIP3      H1             20.3301267729       13.9920395685      -15.1699287554  SOLV      3436            0.0000000000
     10422      3447  TIP3      H2             19.6619335498       12.6490429520      -14.9672422121  SOLV      3436            0.0000000000
     10423      3448  TIP3      OH2            18.0343610528       14.3296918832      -25.9751525785  SOLV      3437            0.0000000000
     10424      3448  TIP3      H1             17.5463014798       14.1890615471      -26.8050236269  SOLV      3437            0.0000000000
     10425      3448  TIP3      H2             17.6793040330       15.1842574776      -25.6651495520  SOLV      3437            0.0000000000
     10426      3449  TIP3      OH2            12.4012313785       12.8235799173      -22.1079373597  SOLV      3438            0.0000000000
     10427      3449  TIP3      H1             12.8683754845       12.7482733901      -21.2458248655  SOLV      3438            0.0000000000
     10428      3449  TIP3      H2             11.9081291195       11.9847689371      -22.1226479684  SOLV      3438            0.0000000000
     10429      3450  TIP3      OH2            19.8791806192       13.5291665847      -29.5467285639  SOLV      3439            0.0000000000
     10430      3450  TIP3      H1             20.4683673003       12.8607559733      -29.9514486007  SOLV      3439            0.0000000000
     10431      3450  TIP3      H2             20.2732252699       13.6097702064      -28.6531312598  SOLV      3439            0.0000000000
     10432      3451  TIP3      OH2            20.5504291334       13.8642595322      -26.8583199279  SOLV      3440            0.0000000000
     10433      3451  TIP3      H1             19.6619144916       13.9551017820      -26.4476119416  SOLV      3440            0.0000000000
     10434      3451  TIP3      H2             21.0588765084       13.4864357231      -26.1209008016  SOLV      3440            0.0000000000
     10435      3452  TIP3      OH2            28.1904225881        6.4815293676      -14.1062652203  SOLV      3441            0.0000000000
     10436      3452  TIP3      H1             27.3814218070        6.5681473802      -14.6333901217  SOLV      3441            0.0000000000
     10437      3452  TIP3      H2             28.3900458310        5.5317075622      -14.2268764948  SOLV      3441            0.0000000000
     10438      3453  TIP3      OH2            14.1906371819       10.6221443903      -13.8966055693  SOLV      3442            0.0000000000
     10439      3453  TIP3      H1             14.6813332094       10.4371522906      -13.0708857995  SOLV      3442            0.0000000000
     10440      3453  TIP3      H2             13.4400330362        9.9944245334      -13.8248276459  SOLV      3442            0.0000000000
     10441      3454  TIP3      OH2            18.1790876048       -1.1809856731      -15.9769417617  SOLV      3443            0.0000000000
     10442      3454  TIP3      H1             17.3257556618       -1.5174064654      -16.3165135395  SOLV      3443            0.0000000000
     10443      3454  TIP3      H2             17.8639554694       -0.4023543731      -15.4770492524  SOLV      3443            0.0000000000
     10444      3455  TIP3      OH2            23.5533045151       -0.0190672521      -14.0542993766  SOLV      3444            0.0000000000
     10445      3455  TIP3      H1             24.2383577160       -0.3320025467      -13.4297179568  SOLV      3444            0.0000000000
     10446      3455  TIP3      H2             22.7189237103       -0.2292752473      -13.5866849654  SOLV      3444            0.0000000000
     10447      3456  TIP3      OH2            25.9106823595        4.2711418219      -14.8545021569  SOLV      3445            0.0000000000
     10448      3456  TIP3      H1             25.3712280635        4.2504228751      -14.0315608090  SOLV      3445            0.0000000000
     10449      3456  TIP3      H2             25.6661889255        5.1299604887      -15.2467688905  SOLV      3445            0.0000000000
     10450      3457  TIP3      OH2            22.5661112633        5.6653580665      -29.2038670048  SOLV      3446            0.0000000000
     10451      3457  TIP3      H1             22.2123256331        5.3853452476      -30.0755469005  SOLV      3446            0.0000000000
     10452      3457  TIP3      H2             23.4679357922        5.9230576535      -29.4828821336  SOLV      3446            0.0000000000
     10453      3458  TIP3      OH2            19.6348981511       -0.7109391267      -26.2752420422  SOLV      3447            0.0000000000
     10454      3458  TIP3      H1             19.3032066568       -0.7450245289      -25.3550710633  SOLV      3447            0.0000000000
     10455      3458  TIP3      H2             19.2149117367       -1.5206916147      -26.6284884556  SOLV      3447            0.0000000000
     10456      3459  TIP3      OH2            17.4959024345        4.0164796942      -15.8102747707  SOLV      3448            0.0000000000
     10457      3459  TIP3      H1             17.0025277387        4.2249416485      -14.9921030194  SOLV      3448            0.0000000000
     10458      3459  TIP3      H2             17.3275856492        4.8240645188      -16.3436058785  SOLV      3448            0.0000000000
     10459      3460  TIP3      OH2            16.3327447838        2.8692229208      -20.6788953226  SOLV      3449            0.0000000000
     10460      3460  TIP3      H1             15.4185961203        2.5768751347      -20.4768451879  SOLV      3449            0.0000000000
     10461      3460  TIP3      H2             16.4578484125        2.4459187448      -21.5581572008  SOLV      3449            0.0000000000
     10462      3461  TIP3      OH2            21.2574403044        3.6910523309      -23.3818544533  SOLV      3450            0.0000000000
     10463      3461  TIP3      H1             20.7608688039        4.4050434608      -23.8350266832  SOLV      3450            0.0000000000
     10464      3461  TIP3      H2             21.8143469975        3.3445363511      -24.1080975431  SOLV      3450            0.0000000000
     10465      3462  TIP3      OH2            23.0027188221        6.4589510428      -12.5318749839  SOLV      3451            0.0000000000
     10466      3462  TIP3      H1             22.7813901223        5.7229647249      -11.9197393919  SOLV      3451            0.0000000000
     10467      3462  TIP3      H2             23.9527998085        6.5616354754      -12.3419538103  SOLV      3451            0.0000000000
     10468      3463  TIP3      OH2            22.7781355438        3.9545642353      -21.0269169423  SOLV      3452            0.0000000000
     10469      3463  TIP3      H1             22.1493828803        4.1900797896      -21.7396119486  SOLV      3452            0.0000000000
     10470      3463  TIP3      H2             23.1968451059        3.1800763840      -21.4610399749  SOLV      3452            0.0000000000
     10471      3464  TIP3      OH2            15.6923986884        4.2737972847      -13.7051628012  SOLV      3453            0.0000000000
     10472      3464  TIP3      H1             16.1334313476        4.8502355008      -13.0626146116  SOLV      3453            0.0000000000
     10473      3464  TIP3      H2             15.6212703568        3.4315835267      -13.2113149547  SOLV      3453            0.0000000000
     10474      3465  TIP3      OH2            16.1695722242       -0.9537613260      -26.6319383271  SOLV      3454            0.0000000000
     10475      3465  TIP3      H1             16.0990754896       -0.9555486926      -25.6552864586  SOLV      3454            0.0000000000
     10476      3465  TIP3      H2             15.4019438375       -0.3994157644      -26.8691897066  SOLV      3454            0.0000000000
     10477      3466  TIP3      OH2            11.6019063497       -0.5896757588      -17.8687723802  SOLV      3455            0.0000000000
     10478      3466  TIP3      H1             12.3566470576       -0.2382717646      -17.3528778525  SOLV      3455            0.0000000000
     10479      3466  TIP3      H2             12.0139181855       -0.8744707995      -18.7006143113  SOLV      3455            0.0000000000
     10480      3467  TIP3      OH2            11.2380701117       -0.7368828334      -22.7528599110  SOLV      3456            0.0000000000
     10481      3467  TIP3      H1             11.7345885858       -0.3954595582      -23.5261964140  SOLV      3456            0.0000000000
     10482      3467  TIP3      H2             10.6624125087        0.0298552570      -22.5776820776  SOLV      3456            0.0000000000
     10483      3468  TIP3      OH2            22.9022043601        6.4404361860      -16.8049723143  SOLV      3457            0.0000000000
     10484      3468  TIP3      H1             23.2322468457        5.7390540822      -17.4175433455  SOLV      3457            0.0000000000
     10485      3468  TIP3      H2             22.5919684915        5.8767842023      -16.0631806534  SOLV      3457            0.0000000000
     10486      3469  TIP3      OH2            19.6351688856        1.2036766484      -20.0807516794  SOLV      3458            0.0000000000
     10487      3469  TIP3      H1             18.8923445628        1.0854272959      -19.4616830795  SOLV      3458            0.0000000000
     10488      3469  TIP3      H2             20.3974366808        0.8912481647      -19.5464789204  SOLV      3458            0.0000000000
     10489      3470  TIP3      OH2            13.9707507034        1.6228218871      -20.0136670490  SOLV      3459            0.0000000000
     10490      3470  TIP3      H1             13.0313386288        1.6794678617      -20.3068543566  SOLV      3459            0.0000000000
     10491      3470  TIP3      H2             14.2061954904        0.6948105274      -20.2041709910  SOLV      3459            0.0000000000
     10492      3471  TIP3      OH2            16.5814710583        1.5726582617      -23.0721342538  SOLV      3460            0.0000000000
     10493      3471  TIP3      H1             17.5332282107        1.7057936398      -23.2547879911  SOLV      3460            0.0000000000
     10494      3471  TIP3      H2             16.1502215499        1.7836920877      -23.9313207695  SOLV      3460            0.0000000000
     10495      3472  TIP3      OH2            24.5238867834        1.9405661472      -17.9418874566  SOLV      3461            0.0000000000
     10496      3472  TIP3      H1             24.0492108751        1.9876817674      -17.0881878914  SOLV      3461            0.0000000000
     10497      3472  TIP3      H2             24.0928031869        1.1978460117      -18.3847241662  SOLV      3461            0.0000000000
     10498      3473  TIP3      OH2            15.1173643264        1.9592346665      -25.3542446597  SOLV      3462            0.0000000000
     10499      3473  TIP3      H1             14.4178633117        1.4997538982      -25.8503088582  SOLV      3462            0.0000000000
     10500      3473  TIP3      H2             15.6448009151        2.3383133485      -26.0882720098  SOLV      3462            0.0000000000
     10501      3474  TIP3      OH2            26.2908746069       18.7317021424      -15.8413375576  SOLV      3463            0.0000000000
     10502      3474  TIP3      H1             26.2719506646       18.9750695642      -16.7850292820  SOLV      3463            0.0000000000
     10503      3474  TIP3      H2             27.0834536844       19.2107007809      -15.5326860041  SOLV      3463            0.0000000000
     10504      3475  TIP3      OH2            15.8232944582        9.8229120078      -11.6701422750  SOLV      3464            0.0000000000
     10505      3475  TIP3      H1             16.6157000871       10.1008697536      -11.1687517578  SOLV      3464            0.0000000000
     10506      3475  TIP3      H2             15.1657354060        9.7870469731      -10.9455150372  SOLV      3464            0.0000000000
     10507      3476  TIP3      OH2            20.4435500743        4.4102145245      -19.0848113149  SOLV      3465            0.0000000000
     10508      3476  TIP3      H1             21.1366751980        3.9748539875      -19.6054297547  SOLV      3465            0.0000000000
     10509      3476  TIP3      H2             20.4617277150        3.8966753563      -18.2553580139  SOLV      3465            0.0000000000
     10510      3477  TIP3      OH2            15.6044959836       -0.8512716915      -20.1997204926  SOLV      3466            0.0000000000
     10511      3477  TIP3      H1             15.2796227561       -1.6386416317      -19.7073851099  SOLV      3466            0.0000000000
     10512      3477  TIP3      H2             16.1869636140       -1.2711409328      -20.8462748635  SOLV      3466            0.0000000000
     10513      3478  TIP3      OH2            20.1955090541        3.3701890009      -16.2185293842  SOLV      3467            0.0000000000
     10514      3478  TIP3      H1             19.2939093671        3.7122138552      -16.0590191142  SOLV      3467            0.0000000000
     10515      3478  TIP3      H2             20.7633666031        3.9847961064      -15.7147039406  SOLV      3467            0.0000000000
     10516      3479  TIP3      OH2            17.5455228737        7.2304922782      -25.2838005637  SOLV      3468            0.0000000000
     10517      3479  TIP3      H1             16.8371668131        6.5605840236      -25.3918907154  SOLV      3468            0.0000000000
     10518      3479  TIP3      H2             17.3479267543        7.5622901817      -24.3724113694  SOLV      3468            0.0000000000
     10519      3480  TIP3      OH2            26.5326453627        9.6090162435      -19.0017958300  SOLV      3469            0.0000000000
     10520      3480  TIP3      H1             26.7712391225       10.1074944212      -19.8105855438  SOLV      3469            0.0000000000
     10521      3480  TIP3      H2             25.7063668451        9.1501783865      -19.2743312494  SOLV      3469            0.0000000000
     10522      3481  TIP3      OH2            22.1357258215        0.3259693771      -26.5736746599  SOLV      3470            0.0000000000
     10523      3481  TIP3      H1             21.1740044528        0.1299250714      -26.4790916431  SOLV      3470            0.0000000000
     10524      3481  TIP3      H2             22.1990246300        1.2721746492      -26.3343088429  SOLV      3470            0.0000000000
     10525      3482  TIP3      OH2            21.5657723417       10.4294708639      -15.2950835419  SOLV      3471            0.0000000000
     10526      3482  TIP3      H1             21.8854071781       10.2229844060      -14.4084461825  SOLV      3471            0.0000000000
     10527      3482  TIP3      H2             21.1684339979       11.3096683326      -15.1886939200  SOLV      3471            0.0000000000
     10528      3483  TIP3      OH2            22.8350912018        2.8335332823      -25.5429832319  SOLV      3472            0.0000000000
     10529      3483  TIP3      H1             23.7986234705        2.8772301568      -25.3907459098  SOLV      3472            0.0000000000
     10530      3483  TIP3      H2             22.6655586748        3.6311923812      -26.0798566662  SOLV      3472            0.0000000000
     10531      3484  TIP3      OH2            14.5135853238        7.4635517400      -18.5330461488  SOLV      3473            0.0000000000
     10532      3484  TIP3      H1             14.8916488459        7.1733685881      -19.3888839337  SOLV      3473            0.0000000000
     10533      3484  TIP3      H2             15.0108906668        6.9118134271      -17.9089843221  SOLV      3473            0.0000000000
     10534      3485  TIP3      OH2            19.0211047880        8.7092845034      -27.0386071733  SOLV      3474            0.0000000000
     10535      3485  TIP3      H1             18.5235543141        9.5598430307      -27.0069722612  SOLV      3474            0.0000000000
     10536      3485  TIP3      H2             18.4895295827        8.1593180462      -26.4216782996  SOLV      3474            0.0000000000
     10537      3486  TIP3      OH2            13.3405027742        6.7420174002      -12.3417629790  SOLV      3475            0.0000000000
     10538      3486  TIP3      H1             13.7299300583        6.6687030669      -11.4411478839  SOLV      3475            0.0000000000
     10539      3486  TIP3      H2             12.8115141519        5.9375907846      -12.4376800641  SOLV      3475            0.0000000000
     10540      3487  TIP3      OH2            20.6118822535        7.8312234508      -12.1701934375  SOLV      3476            0.0000000000
     10541      3487  TIP3      H1             19.9890909158        7.2325968958      -12.6115776089  SOLV      3476            0.0000000000
     10542      3487  TIP3      H2             21.4697934920        7.4425086071      -12.4493953471  SOLV      3476            0.0000000000
     10543      3488  TIP3      OH2            23.1438634264       13.0785549907      -16.3253224913  SOLV      3477            0.0000000000
     10544      3488  TIP3      H1             22.1847687088       13.0077491746      -16.1741421987  SOLV      3477            0.0000000000
     10545      3488  TIP3      H2             23.4190039736       13.5718044313      -15.5245404419  SOLV      3477            0.0000000000
     10546      3489  TIP3      OH2            27.2257725953        3.7427252328      -27.1510058306  SOLV      3478            0.0000000000
     10547      3489  TIP3      H1             26.5850977588        3.3373293958      -27.7867686212  SOLV      3478            0.0000000000
     10548      3489  TIP3      H2             27.2361838470        4.6455543601      -27.5386922709  SOLV      3478            0.0000000000
     10549      3490  TIP3      OH2            29.4747625308       12.3883699548      -16.4686123685  SOLV      3479            0.0000000000
     10550      3490  TIP3      H1             28.4999385664       12.2847260952      -16.5399080780  SOLV      3479            0.0000000000
     10551      3490  TIP3      H2             29.7430602279       12.0585755467      -17.3560614746  SOLV      3479            0.0000000000
     10552      3491  TIP3      OH2            24.2167409312       11.8670607202      -28.0216527749  SOLV      3480            0.0000000000
     10553      3491  TIP3      H1             23.9788620464       11.1968223884      -27.3630213026  SOLV      3480            0.0000000000
     10554      3491  TIP3      H2             24.3654474922       11.3486958491      -28.8300503273  SOLV      3480            0.0000000000
     10555      3492  TIP3      OH2            24.2111529829        8.2454974588      -19.8394633626  SOLV      3481            0.0000000000
     10556      3492  TIP3      H1             23.2794079546        7.9939999296      -19.6964097481  SOLV      3481            0.0000000000
     10557      3492  TIP3      H2             24.5411460410        7.4347023894      -20.2826366064  SOLV      3481            0.0000000000
     10558      3493  TIP3      OH2            15.5404626234       10.5275564766      -22.2315496095  SOLV      3482            0.0000000000
     10559      3493  TIP3      H1             15.4777090998       11.3236299529      -22.7932559421  SOLV      3482            0.0000000000
     10560      3493  TIP3      H2             14.6114073649       10.3124375547      -22.0954626749  SOLV      3482            0.0000000000
     10561      3494  TIP3      OH2            11.1631510202        3.5272557281      -25.1849078288  SOLV      3483            0.0000000000
     10562      3494  TIP3      H1             11.6119477078        4.3681140173      -24.9530300001  SOLV      3483            0.0000000000
     10563      3494  TIP3      H2             10.4019632994        3.5500282193      -24.5626059890  SOLV      3483            0.0000000000
     10564      3495  TIP3      OH2            16.8013138940        8.1224689348      -22.8590236724  SOLV      3484            0.0000000000
     10565      3495  TIP3      H1             16.4876666362        9.0189073171      -22.6294519036  SOLV      3484            0.0000000000
     10566      3495  TIP3      H2             16.4969998910        7.6043620016      -22.0906879186  SOLV      3484            0.0000000000
     10567      3496  TIP3      OH2            18.2351979322       13.9274190823      -17.5708940290  SOLV      3485            0.0000000000
     10568      3496  TIP3      H1             18.6801936695       14.6415376907      -18.0718808512  SOLV      3485            0.0000000000
     10569      3496  TIP3      H2             18.9892980424       13.5202714675      -17.1137373556  SOLV      3485            0.0000000000
     10570      3497  TIP3      OH2            14.6736757812       12.9017095492      -23.7507145527  SOLV      3486            0.0000000000
     10571      3497  TIP3      H1             13.8330491175       12.9922824337      -23.2592580994  SOLV      3486            0.0000000000
     10572      3497  TIP3      H2             15.0094479359       13.8255610014      -23.7107468591  SOLV      3486            0.0000000000
     10573      3498  TIP3      OH2            22.0637574353       10.2889421844      -17.9714388292  SOLV      3487            0.0000000000
     10574      3498  TIP3      H1             21.9482681237       10.2562141792      -16.9940298014  SOLV      3487            0.0000000000
     10575      3498  TIP3      H2             22.8243000817        9.7037105449      -18.0928868169  SOLV      3487            0.0000000000
     10576      3499  TIP3      OH2            21.8477107890        9.3107285404      -29.0891232195  SOLV      3488            0.0000000000
     10577      3499  TIP3      H1             22.4316142132        9.0189913799      -28.3498596327  SOLV      3488            0.0000000000
     10578      3499  TIP3      H2             21.0084543270        8.9185587818      -28.8039165403  SOLV      3488            0.0000000000
     10579      3500  TIP3      OH2            24.5604245406       15.5822699714      -17.4547789403  SOLV      3489            0.0000000000
     10580      3500  TIP3      H1             23.7678748328       15.0103086306      -17.4898763749  SOLV      3489            0.0000000000
     10581      3500  TIP3      H2             24.3772774801       16.2064357409      -18.1906909528  SOLV      3489            0.0000000000
     10582      3501  TIP3      OH2            15.4073137846        1.7165522392      -12.3266796906  SOLV      3490            0.0000000000
     10583      3501  TIP3      H1             14.4481182935        1.6346227617      -12.1844336084  SOLV      3490            0.0000000000
     10584      3501  TIP3      H2             15.7609476530        1.2117030491      -11.5747211523  SOLV      3490            0.0000000000
     10585      3502  TIP3      OH2            23.4842342709        8.5718074747      -26.9962434402  SOLV      3491            0.0000000000
     10586      3502  TIP3      H1             23.3556548143        7.8913026850      -26.3047424019  SOLV      3491            0.0000000000
     10587      3502  TIP3      H2             24.4548482084        8.4987521401      -27.1217239610  SOLV      3491            0.0000000000
     10588      3503  TIP3      OH2            12.6066851588       12.5139330783      -16.0007991488  SOLV      3492            0.0000000000
     10589      3503  TIP3      H1             13.1496779179       11.7994849571      -15.6275612439  SOLV      3492            0.0000000000
     10590      3503  TIP3      H2             12.8296937562       13.2445978648      -15.4109326175  SOLV      3492            0.0000000000
     10591      3504  TIP3      OH2            15.4407109545        9.0018287104      -29.1270229817  SOLV      3493            0.0000000000
     10592      3504  TIP3      H1             15.6332207051        8.0754845580      -29.3658943011  SOLV      3493            0.0000000000
     10593      3504  TIP3      H2             15.2451378709        8.9132545021      -28.1722401976  SOLV      3493            0.0000000000
     10594      3505  TIP3      OH2            14.9041959043        9.0651327309      -26.4111854033  SOLV      3494            0.0000000000
     10595      3505  TIP3      H1             15.6685058704        8.7640230917      -25.8976862044  SOLV      3494            0.0000000000
     10596      3505  TIP3      H2             14.9604944894       10.0412845154      -26.3049155845  SOLV      3494            0.0000000000
     10597      3506  TIP3      OH2            12.2384554257        5.9583435409      -24.3630697302  SOLV      3495            0.0000000000
     10598      3506  TIP3      H1             11.5755740544        6.4153524849      -23.8025720767  SOLV      3495            0.0000000000
     10599      3506  TIP3      H2             12.3847768522        6.6420101496      -25.0445564282  SOLV      3495            0.0000000000
     10600      3507  TIP3      OH2            23.7178793105        2.4452986926      -15.3044790054  SOLV      3496            0.0000000000
     10601      3507  TIP3      H1             24.6301255500        2.7283722130      -15.1229732464  SOLV      3496            0.0000000000
     10602      3507  TIP3      H2             23.6570836330        1.5964164549      -14.8147101719  SOLV      3496            0.0000000000
     10603      3508  TIP3      OH2            22.6653701563       -0.1679111798      -23.7652771343  SOLV      3497            0.0000000000
     10604      3508  TIP3      H1             22.5281184177        0.0379294430      -24.7087448568  SOLV      3497            0.0000000000
     10605      3508  TIP3      H2             23.0063089139        0.6794677795      -23.4162526683  SOLV      3497            0.0000000000
     10606      3509  TIP3      OH2            17.5965677254       11.0023526204      -26.9449231630  SOLV      3498            0.0000000000
     10607      3509  TIP3      H1             16.7272216019       11.2327311485      -26.5634246933  SOLV      3498            0.0000000000
     10608      3509  TIP3      H2             17.7761734870       11.8087777363      -27.4508886471  SOLV      3498            0.0000000000
     10609      3510  TIP3      OH2            19.3975401028        1.7100614834      -22.7677120968  SOLV      3499            0.0000000000
     10610      3510  TIP3      H1             20.0570434803        2.4188288957      -22.9228063820  SOLV      3499            0.0000000000
     10611      3510  TIP3      H2             19.4921332209        1.5816249190      -21.7951475892  SOLV      3499            0.0000000000
     10612      3511  TIP3      OH2            22.1861708320        4.8023733212      -14.7587076967  SOLV      3500            0.0000000000
     10613      3511  TIP3      H1             22.4859629525        5.2379906295      -13.9376181369  SOLV      3500            0.0000000000
     10614      3511  TIP3      H2             22.6962757855        3.9649853779      -14.7574842353  SOLV      3500            0.0000000000
     10615      3512  TIP3      OH2            20.9149523730       -1.1735481847      -21.8035661433  SOLV      3501            0.0000000000
     10616      3512  TIP3      H1             21.0888849761       -0.5260811314      -21.0980699025  SOLV      3501            0.0000000000
     10617      3512  TIP3      H2             21.5552879045       -0.8618489769      -22.4832260875  SOLV      3501            0.0000000000
     10618      3513  TIP3      OH2            15.0713553975       11.7918420599      -26.2320859307  SOLV      3502            0.0000000000
     10619      3513  TIP3      H1             14.7423149442       12.4941765761      -26.8336629102  SOLV      3502            0.0000000000
     10620      3513  TIP3      H2             14.9049611657       12.2008393295      -25.3527906987  SOLV      3502            0.0000000000
     10621      3514  TIP3      OH2            16.0479449072       -1.0596075395      -23.8908633202  SOLV      3503            0.0000000000
     10622      3514  TIP3      H1             16.0213447974       -0.1818606263      -23.4601619331  SOLV      3503            0.0000000000
     10623      3514  TIP3      H2             17.0039441694       -1.2539026398      -23.7902816210  SOLV      3503            0.0000000000
     10624      3515  TIP3      OH2            28.5726785915        3.8209847409      -14.9581713971  SOLV      3504            0.0000000000
     10625      3515  TIP3      H1             27.5921867473        3.8443975134      -14.8734302701  SOLV      3504            0.0000000000
     10626      3515  TIP3      H2             28.6441627926        3.3394403892      -15.7962869688  SOLV      3504            0.0000000000
     10627      3516  TIP3      OH2            25.0028363661        5.8552906332      -21.0642280397  SOLV      3505            0.0000000000
     10628      3516  TIP3      H1             24.2889595030        5.2165207734      -20.8939792830  SOLV      3505            0.0000000000
     10629      3516  TIP3      H2             25.7539729955        5.4545712409      -20.5610137751  SOLV      3505            0.0000000000
     10630      3517  TIP3      OH2            12.2498432043        8.0117106545      -26.3451592891  SOLV      3506            0.0000000000
     10631      3517  TIP3      H1             12.9904780895        8.6376981112      -26.2263775115  SOLV      3506            0.0000000000
     10632      3517  TIP3      H2             12.6676977421        7.4123169988      -27.0027972483  SOLV      3506            0.0000000000
     10633      3518  TIP3      OH2            11.6211754594        0.8232021270      -24.9840487473  SOLV      3507            0.0000000000
     10634      3518  TIP3      H1             11.6713597051        1.7991236515      -24.9977202413  SOLV      3507            0.0000000000
     10635      3518  TIP3      H2             10.7978886083        0.6621366297      -25.4561551211  SOLV      3507            0.0000000000
     10636      3519  TIP3      OH2            24.7769324820       15.3883316022      -21.5565799527  SOLV      3508            0.0000000000
     10637      3519  TIP3      H1             24.3519940423       15.8600292616      -22.3083167913  SOLV      3508            0.0000000000
     10638      3519  TIP3      H2             25.7226049166       15.5679092805      -21.7616425684  SOLV      3508            0.0000000000
     10639      3520  TIP3      OH2            15.4920627693       -1.9847672201      -16.2947356668  SOLV      3509            0.0000000000
     10640      3520  TIP3      H1             15.3258085129       -2.3964182943      -17.1688554647  SOLV      3509            0.0000000000
     10641      3520  TIP3      H2             15.4751103696       -2.7760365761      -15.7160279908  SOLV      3509            0.0000000000
     10642      3521  TIP3      OH2            10.8752231385       10.1894715333      -22.5107223218  SOLV      3510            0.0000000000
     10643      3521  TIP3      H1             10.2780193033       10.4948870406      -21.8132486690  SOLV      3510            0.0000000000
     10644      3521  TIP3      H2             10.5006448624       10.6397211294      -23.3063581457  SOLV      3510            0.0000000000
     10645      3522  TIP3      OH2            12.5280363827       15.7076831694      -11.7598478205  SOLV      3511            0.0000000000
     10646      3522  TIP3      H1             13.3922377485       15.6890245931      -11.2945753305  SOLV      3511            0.0000000000
     10647      3522  TIP3      H2             12.3046972809       14.7616089421      -11.7620955338  SOLV      3511            0.0000000000
     10648      3523  TIP3      OH2            17.2951216088       15.2458687548      -11.3250927608  SOLV      3512            0.0000000000
     10649      3523  TIP3      H1             18.2301474932       15.0053843948      -11.2583777266  SOLV      3512            0.0000000000
     10650      3523  TIP3      H2             16.9996174777       14.6198441246      -12.0186823054  SOLV      3512            0.0000000000
     10651      3524  TIP3      OH2            17.1230877412       10.9791436030      -30.0334438474  SOLV      3513            0.0000000000
     10652      3524  TIP3      H1             16.6270702377       10.2380198305      -29.6131679880  SOLV      3513            0.0000000000
     10653      3524  TIP3      H2             17.9109235570       10.5062325879      -30.3594041782  SOLV      3513            0.0000000000
     10654      3525  TIP3      OH2            23.6566650841       14.3690193260      -13.9323135176  SOLV      3514            0.0000000000
     10655      3525  TIP3      H1             23.6005104019       13.6603929509      -13.2488661015  SOLV      3514            0.0000000000
     10656      3525  TIP3      H2             24.4479849872       14.8643466599      -13.6459340020  SOLV      3514            0.0000000000
     10657      3526  TIP3      OH2            21.6189404626       11.6197708474      -30.5364282912  SOLV      3515            0.0000000000
     10658      3526  TIP3      H1             21.8199774867       10.8983520962      -29.8972698642  SOLV      3515            0.0000000000
     10659      3526  TIP3      H2             22.4958938669       12.0298066108      -30.6243616877  SOLV      3515            0.0000000000
     10660      3527  TIP3      OH2            13.8168603329        9.8234505878       -9.7604305407  SOLV      3516            0.0000000000
     10661      3527  TIP3      H1             13.9434649744        8.9392022885       -9.3743678026  SOLV      3516            0.0000000000
     10662      3527  TIP3      H2             12.9496768445        9.7294657031      -10.2131139209  SOLV      3516            0.0000000000
     10663      3528  TIP3      OH2            13.5952397815        6.1488856730      -27.7630648727  SOLV      3517            0.0000000000
     10664      3528  TIP3      H1             14.1604390620        5.8531545882      -27.0241049878  SOLV      3517            0.0000000000
     10665      3528  TIP3      H2             14.2714154818        6.2074970496      -28.4746958708  SOLV      3517            0.0000000000
     10666      3529  TIP3      OH2            19.8683210706       10.5914033205      -11.9991058812  SOLV      3518            0.0000000000
     10667      3529  TIP3      H1             19.4530972713       10.7896477386      -12.8626169887  SOLV      3518            0.0000000000
     10668      3529  TIP3      H2             20.1673495280        9.6637593720      -12.1112989293  SOLV      3518            0.0000000000
     10669      3530  TIP3      OH2            18.6782209253        8.1773779271      -29.7194951505  SOLV      3519            0.0000000000
     10670      3530  TIP3      H1             18.7371281208        8.2699866915      -28.7463580464  SOLV      3519            0.0000000000
     10671      3530  TIP3      H2             18.7100661367        7.1975106045      -29.8031327350  SOLV      3519            0.0000000000
     10672      3531  TIP3      OH2            24.7978578403       10.7220843841      -15.8983834142  SOLV      3520            0.0000000000
     10673      3531  TIP3      H1             25.5705081491       11.1152556515      -16.3473122258  SOLV      3520            0.0000000000
     10674      3531  TIP3      H2             24.1090309963       11.3799740389      -16.1081259066  SOLV      3520            0.0000000000
     10675      3532  TIP3      OH2            14.7198568163        6.8419614016       -9.9315748918  SOLV      3521            0.0000000000
     10676      3532  TIP3      H1             15.4006064986        6.1595814671       -9.9587071009  SOLV      3521            0.0000000000
     10677      3532  TIP3      H2             14.9647171495        7.2555925943       -9.0710252358  SOLV      3521            0.0000000000
     10678      3533  TIP3      OH2            15.5930595760        5.2753277436      -25.6302070905  SOLV      3522            0.0000000000
     10679      3533  TIP3      H1             15.3636811016        4.8765305733      -24.7745400511  SOLV      3522            0.0000000000
     10680      3533  TIP3      H2             16.0096634882        4.5232640795      -26.1027227316  SOLV      3522            0.0000000000
     10681      3534  TIP3      OH2            18.3087994292        5.8641649337      -13.3025846685  SOLV      3523            0.0000000000
     10682      3534  TIP3      H1             17.5498598179        6.4881848571      -13.2983084696  SOLV      3523            0.0000000000
     10683      3534  TIP3      H2             18.8546469576        6.2280180500      -14.0399696207  SOLV      3523            0.0000000000
     10684      3535  TIP3      OH2            16.6891729760        3.2329544022      -27.1941503218  SOLV      3524            0.0000000000
     10685      3535  TIP3      H1             16.4639190005        3.3069718971      -28.1447472685  SOLV      3524            0.0000000000
     10686      3535  TIP3      H2             17.6690999872        3.2099728568      -27.2455442772  SOLV      3524            0.0000000000
     10687      3536  TIP3      OH2            23.5605299813        9.9273249811      -11.9777903869  SOLV      3525            0.0000000000
     10688      3536  TIP3      H1             24.2858100167        9.5527516812      -12.4952904834  SOLV      3525            0.0000000000
     10689      3536  TIP3      H2             23.4576472705        9.2668534968      -11.2688634493  SOLV      3525            0.0000000000
     10690      3537  TIP3      OH2            24.9350395266        6.2659089345      -30.4703084266  SOLV      3526            0.0000000000
     10691      3537  TIP3      H1             25.2714178813        5.7330444109      -31.2208676923  SOLV      3526            0.0000000000
     10692      3537  TIP3      H2             24.5804825270        7.0790673184      -30.8940297656  SOLV      3526            0.0000000000
     10693      3538  TIP3      OH2            19.6386851272        3.8231987487      -12.0921054592  SOLV      3527            0.0000000000
     10694      3538  TIP3      H1             19.6135599771        3.0177980454      -12.6495834304  SOLV      3527            0.0000000000
     10695      3538  TIP3      H2             19.1521249336        4.4688315748      -12.6505734135  SOLV      3527            0.0000000000
     10696      3539  TIP3      OH2            19.6118667647        1.6774150629      -13.9416428855  SOLV      3528            0.0000000000
     10697      3539  TIP3      H1             19.9089848922        2.0585228616      -14.7901323625  SOLV      3528            0.0000000000
     10698      3539  TIP3      H2             18.6873323709        1.4233939770      -14.1522538226  SOLV      3528            0.0000000000
     10699      3540  TIP3      OH2            19.8202025057        6.9979566717      -15.1902122588  SOLV      3529            0.0000000000
     10700      3540  TIP3      H1             20.6887365971        7.0880019470      -15.6030281084  SOLV      3529            0.0000000000
     10701      3540  TIP3      H2             19.2771955567        7.6369228969      -15.6992100171  SOLV      3529            0.0000000000
     10702      3541  TIP3      OH2            25.6907565655        6.6486417217      -11.4484823686  SOLV      3530            0.0000000000
     10703      3541  TIP3      H1             26.1208573912        5.7796749633      -11.4257066989  SOLV      3530            0.0000000000
     10704      3541  TIP3      H2             26.3761807714        7.1966375016      -11.8561923587  SOLV      3530            0.0000000000
     10705      3542  TIP3      OH2            26.0646866935        9.2339423862      -14.0319793709  SOLV      3531            0.0000000000
     10706      3542  TIP3      H1             25.4965323341        9.7778467946      -14.6272535294  SOLV      3531            0.0000000000
     10707      3542  TIP3      H2             26.9457010277        9.4303460115      -14.4220085574  SOLV      3531            0.0000000000
     10708      3543  TIP3      OH2            18.4502109618        4.8805201490       -9.7010987747  SOLV      3532            0.0000000000
     10709      3543  TIP3      H1             17.7999476646        4.1509404381       -9.5762390597  SOLV      3532            0.0000000000
     10710      3543  TIP3      H2             18.7357782842        4.7087869692      -10.6179105022  SOLV      3532            0.0000000000
     10711      3544  TIP3      OH2            20.9350260097       -0.7183652611      -13.2335091699  SOLV      3533            0.0000000000
     10712      3544  TIP3      H1             20.4207501080        0.0784586884      -13.4817690099  SOLV      3533            0.0000000000
     10713      3544  TIP3      H2             20.2707371026       -1.4262446335      -13.3733326048  SOLV      3533            0.0000000000
     10714      3545  TIP3      OH2            22.1813410109        4.2759758664      -11.1031839874  SOLV      3534            0.0000000000
     10715      3545  TIP3      H1             21.9663379473        4.1129177967      -10.1651933776  SOLV      3534            0.0000000000
     10716      3545  TIP3      H2             21.3079785080        4.0607015133      -11.5001808671  SOLV      3534            0.0000000000
     10717      3546  TIP3      OH2            24.6002670050        3.9144371978      -12.5145906041  SOLV      3535            0.0000000000
     10718      3546  TIP3      H1             23.8414516422        3.8487029172      -11.9012612866  SOLV      3535            0.0000000000
     10719      3546  TIP3      H2             25.3378160479        3.5562861121      -11.9796741699  SOLV      3535            0.0000000000
     10720      3547  TIP3      OH2            26.8807700805        3.2411577608      -11.0645880812  SOLV      3536            0.0000000000
     10721      3547  TIP3      H1             27.0056798764        2.2759221312      -10.9402088696  SOLV      3536            0.0000000000
     10722      3547  TIP3      H2             26.8549581542        3.5739476173      -10.1444363018  SOLV      3536            0.0000000000
     10723      3548  TIP3      OH2            16.9260893340        2.6787283357       -9.2750568469  SOLV      3537            0.0000000000
     10724      3548  TIP3      H1             16.7200197245        1.7681105073       -9.5462737855  SOLV      3537            0.0000000000
     10725      3548  TIP3      H2             16.9368622658        2.5964145716       -8.3084712091  SOLV      3537            0.0000000000
     10726      3549  TIP3      OH2            21.8374214787       -0.6521979562      -10.6463674600  SOLV      3538            0.0000000000
     10727      3549  TIP3      H1             22.4911455160       -1.3738513700      -10.7384987463  SOLV      3538            0.0000000000
     10728      3549  TIP3      H2             21.4430857235       -0.6652928585      -11.5438552783  SOLV      3538            0.0000000000
     10729      3550  TIP3      OH2            22.5298599474        1.4985640452       -9.0800965951  SOLV      3539            0.0000000000
     10730      3550  TIP3      H1             22.3210157101        0.7867446505       -9.7254170818  SOLV      3539            0.0000000000
     10731      3550  TIP3      H2             21.7461100937        2.0824378526       -9.1604591682  SOLV      3539            0.0000000000
     10732      3551  TIP3      OH2            14.7182062226       13.8439686713      -28.1252893143  SOLV      3540            0.0000000000
     10733      3551  TIP3      H1             15.6707927800       13.6893410209      -28.2810333357  SOLV      3540            0.0000000000
     10734      3551  TIP3      H2             14.5079345698       14.3843972511      -28.9070535402  SOLV      3540            0.0000000000
     10735      3552  TIP3      OH2             9.5434680869        7.6543395566      -26.0148601210  SOLV      3541            0.0000000000
     10736      3552  TIP3      H1             10.4988162208        7.8504857155      -26.1374131945  SOLV      3541            0.0000000000
     10737      3552  TIP3      H2              9.4828207301        6.7518614509      -26.3936238468  SOLV      3541            0.0000000000
     10738      3553  TIP3      OH2             8.7394724624       13.7388620325      -21.7971609579  SOLV      3542            0.0000000000
     10739      3553  TIP3      H1              8.0714249026       13.1381112941      -22.1941319592  SOLV      3542            0.0000000000
     10740      3553  TIP3      H2              9.1650539016       13.1341771549      -21.1518740146  SOLV      3542            0.0000000000
     10741      3554  TIP3      OH2            10.0574847430       12.1778578649      -19.9331821339  SOLV      3543            0.0000000000
     10742      3554  TIP3      H1              9.9265310591       11.4978480836      -19.2488370613  SOLV      3543            0.0000000000
     10743      3554  TIP3      H2             10.5803112586       12.8246407723      -19.4251381165  SOLV      3543            0.0000000000
     10744      3555  TIP3      OH2            27.3359385863       16.2526447997      -21.9181595629  SOLV      3544            0.0000000000
     10745      3555  TIP3      H1             27.6229454719       16.5618841512      -21.0408806479  SOLV      3544            0.0000000000
     10746      3555  TIP3      H2             28.0076956220       16.6296173712      -22.5080679501  SOLV      3544            0.0000000000
     10747      3556  TIP3      OH2            27.6118918331       16.4313391170      -19.0934778387  SOLV      3545            0.0000000000
     10748      3556  TIP3      H1             27.1403143568       15.5723820701      -19.1567464656  SOLV      3545            0.0000000000
     10749      3556  TIP3      H2             28.3443607474       16.1644266960      -18.5141945561  SOLV      3545            0.0000000000
     10750      3557  TIP3      OH2            28.0743228718       13.2226974119      -13.3711247373  SOLV      3546            0.0000000000
     10751      3557  TIP3      H1             27.3585384456       13.3291911616      -12.7128499149  SOLV      3546            0.0000000000
     10752      3557  TIP3      H2             28.5064136988       14.0996182668      -13.3362909280  SOLV      3546            0.0000000000
     10753      3558  TIP3      OH2            26.2542225238        8.3729911849      -27.1989251986  SOLV      3547            0.0000000000
     10754      3558  TIP3      H1             26.9418560553        8.9958595212      -27.5051785976  SOLV      3547            0.0000000000
     10755      3558  TIP3      H2             26.6894002013        7.9841021775      -26.4063176042  SOLV      3547            0.0000000000
     10756      3559  TIP3      OH2            27.5018957609        7.0500469953      -25.1493209036  SOLV      3548            0.0000000000
     10757      3559  TIP3      H1             26.8473731866        6.6292460347      -24.5485209015  SOLV      3548            0.0000000000
     10758      3559  TIP3      H2             28.1606281210        7.4197809881      -24.5258492664  SOLV      3548            0.0000000000
     10759      3560  TIP3      OH2            28.1175902578       10.9631794380      -20.8491978261  SOLV      3549            0.0000000000
     10760      3560  TIP3      H1             28.6218968496       10.2516994717      -21.2929117504  SOLV      3549            0.0000000000
     10761      3560  TIP3      H2             28.0657956244       11.6475735822      -21.5435018313  SOLV      3549            0.0000000000
     10762      3561  TIP3      OH2            26.3447430886       13.9584662861      -18.9151297680  SOLV      3550            0.0000000000
     10763      3561  TIP3      H1             25.6133547564       14.3515262587      -18.4027250939  SOLV      3550            0.0000000000
     10764      3561  TIP3      H2             25.8638834030       13.4970616951      -19.6372489032  SOLV      3550            0.0000000000
     10765      3562  TIP3      OH2            26.9213147862        6.0824741799      -28.6380900427  SOLV      3551            0.0000000000
     10766      3562  TIP3      H1             26.1992919582        6.0156999671      -29.3046254571  SOLV      3551            0.0000000000
     10767      3562  TIP3      H2             26.6025711601        6.8620915198      -28.1390614920  SOLV      3551            0.0000000000
     10768      3563  TIP3      OH2            25.5320530907        2.8362101768      -29.0261477573  SOLV      3552            0.0000000000
     10769      3563  TIP3      H1             25.4214877398        3.3020332143      -29.8754569567  SOLV      3552            0.0000000000
     10770      3563  TIP3      H2             25.2233823314        1.9381912847      -29.2469944578  SOLV      3552            0.0000000000
     10771      3564  TIP3      OH2            25.6373581647        5.6207975786      -23.7163537537  SOLV      3553            0.0000000000
     10772      3564  TIP3      H1             25.7245591404        4.6564971318      -23.7815910083  SOLV      3553            0.0000000000
     10773      3564  TIP3      H2             25.4532959955        5.7463306619      -22.7565082051  SOLV      3553            0.0000000000
     10774      3565  TIP3      OH2            11.8843076300        6.3025624190      -16.2013594458  SOLV      3554            0.0000000000
     10775      3565  TIP3      H1             11.8631776205        5.9611391641      -17.1202106416  SOLV      3554            0.0000000000
     10776      3565  TIP3      H2             12.8577936614        6.3298900069      -16.0428459516  SOLV      3554            0.0000000000
     10777      3566  TIP3      OH2            28.5254938443        9.8864749668      -15.1107689201  SOLV      3555            0.0000000000
     10778      3566  TIP3      H1             29.2174142121        9.1938108297      -15.2085042276  SOLV      3555            0.0000000000
     10779      3566  TIP3      H2             28.7647278868       10.5137543869      -15.8095660337  SOLV      3555            0.0000000000
     10780      3567  TIP3      OH2            30.3304694506        7.8937843923      -14.9954580470  SOLV      3556            0.0000000000
     10781      3567  TIP3      H1             29.5739821121        7.3786603009      -14.6380329402  SOLV      3556            0.0000000000
     10782      3567  TIP3      H2             31.0558572268        7.2581547606      -14.8064236646  SOLV      3556            0.0000000000
     10783      3568  TIP3      OH2            24.9978321343        0.1259778532      -29.5000281770  SOLV      3557            0.0000000000
     10784      3568  TIP3      H1             25.7306908647       -0.0575072915      -28.8706823480  SOLV      3557            0.0000000000
     10785      3568  TIP3      H2             24.2685825237       -0.4145789105      -29.1368528758  SOLV      3557            0.0000000000
     10786      3569  TIP3      OH2            25.6762535618        2.7104459468      -24.7753339923  SOLV      3558            0.0000000000
     10787      3569  TIP3      H1             26.1257295062        1.8503581209      -24.5997424476  SOLV      3558            0.0000000000
     10788      3569  TIP3      H2             26.2129425940        3.0383398476      -25.5205785422  SOLV      3558            0.0000000000
     10789      3570  TIP3      OH2            27.1354812588        4.8114193778      -19.7789431323  SOLV      3559            0.0000000000
     10790      3570  TIP3      H1             28.0268754643        4.9219506094      -20.1735984702  SOLV      3559            0.0000000000
     10791      3570  TIP3      H2             27.3589217793        4.9204920594      -18.8407334422  SOLV      3559            0.0000000000
     10792      3571  TIP3      OH2            28.0222196770        5.9931196839      -17.3875134228  SOLV      3560            0.0000000000
     10793      3571  TIP3      H1             27.1862812204        6.3061761108      -16.9967433348  SOLV      3560            0.0000000000
     10794      3571  TIP3      H2             28.3087606821        6.7731697710      -17.9076684348  SOLV      3560            0.0000000000
     10795      3572  TIP3      OH2            32.3183976094        1.9402951663      -11.9117849821  SOLV      3561            0.0000000000
     10796      3572  TIP3      H1             32.9793684051        1.3166097777      -12.2910021612  SOLV      3561            0.0000000000
     10797      3572  TIP3      H2             32.0415200245        2.4363332147      -12.7134500020  SOLV      3561            0.0000000000
     10798      3573  TIP3      OH2            26.8695901824        0.2805073232      -24.1152189836  SOLV      3562            0.0000000000
     10799      3573  TIP3      H1             27.2422141104        0.1194517759      -23.2111558126  SOLV      3562            0.0000000000
     10800      3573  TIP3      H2             26.2829519257       -0.4964372018      -24.1832531446  SOLV      3562            0.0000000000
     10801      3574  TIP3      OH2            13.6741123964        0.1205713229      -16.1570562018  SOLV      3563            0.0000000000
     10802      3574  TIP3      H1             14.2560397716       -0.6683821601      -16.1156072657  SOLV      3563            0.0000000000
     10803      3574  TIP3      H2             14.3366263068        0.8239841619      -16.2758734316  SOLV      3563            0.0000000000
     10804      3575  TIP3      OH2            11.6794722473        2.8453562144      -15.4811747441  SOLV      3564            0.0000000000
     10805      3575  TIP3      H1             12.1985250873        2.7720463752      -16.3072079722  SOLV      3564            0.0000000000
     10806      3575  TIP3      H2             11.9886220934        3.6914380633      -15.1387604327  SOLV      3564            0.0000000000
     10807      3576  TIP3      OH2            31.0569785882        3.2130425144      -13.9603529576  SOLV      3565            0.0000000000
     10808      3576  TIP3      H1             30.1638421299        3.6181430708      -13.9448231990  SOLV      3565            0.0000000000
     10809      3576  TIP3      H2             30.8507674167        2.4310472870      -14.5114049922  SOLV      3565            0.0000000000
     10810      3577  TIP3      OH2            27.4065496722       -0.2631418684      -28.0789677302  SOLV      3566            0.0000000000
     10811      3577  TIP3      H1             27.7723198957       -1.0488849877      -28.5409814945  SOLV      3566            0.0000000000
     10812      3577  TIP3      H2             28.1997349073        0.2863056551      -27.9574128886  SOLV      3566            0.0000000000
     10813      3578  TIP3      OH2            11.5677825315       -2.0718412560      -20.4262305965  SOLV      3567            0.0000000000
     10814      3578  TIP3      H1             10.6360193089       -2.1619656538      -20.1738021257  SOLV      3567            0.0000000000
     10815      3578  TIP3      H2             11.5120795387       -1.5229583441      -21.2359091317  SOLV      3567            0.0000000000
     10816      3579  TIP3      OH2            23.1772326283       14.9407997693      -25.3865881327  SOLV      3568            0.0000000000
     10817      3579  TIP3      H1             23.7039166423       14.8380330380      -26.2056105184  SOLV      3568            0.0000000000
     10818      3579  TIP3      H2             23.7033079249       15.5853335577      -24.8874459977  SOLV      3568            0.0000000000
     10819      3580  TIP3      OH2            13.8396711691       -1.3161450733      -12.3144465956  SOLV      3569            0.0000000000
     10820      3580  TIP3      H1             13.3548064662       -1.3281009364      -11.4738911834  SOLV      3569            0.0000000000
     10821      3580  TIP3      H2             13.1532922798       -0.9820346519      -12.9264806627  SOLV      3569            0.0000000000
     10822      3581  TIP3      OH2            14.1442702966       13.0278739044      -11.5481287050  SOLV      3570            0.0000000000
     10823      3581  TIP3      H1             13.2199014315       12.7592759181      -11.7089680056  SOLV      3570            0.0000000000
     10824      3581  TIP3      H2             14.2866598351       12.7083529371      -10.6484893470  SOLV      3570            0.0000000000
     10825      3582  TIP3      OH2            15.9753035536       13.3458821668      -16.0578640448  SOLV      3571            0.0000000000
     10826      3582  TIP3      H1             15.4955026790       14.1015831341      -16.4558138297  SOLV      3571            0.0000000000
     10827      3582  TIP3      H2             16.8341971175       13.4733673374      -16.5099146509  SOLV      3571            0.0000000000
     10828      3583  TIP3      OH2            20.3482447862       15.7456133611      -14.6817295818  SOLV      3572            0.0000000000
     10829      3583  TIP3      H1             20.7759048196       15.7132967427      -13.7985978718  SOLV      3572            0.0000000000
     10830      3583  TIP3      H2             21.0144715540       16.2569341385      -15.1876842235  SOLV      3572            0.0000000000
     10831      3584  TIP3      OH2            22.1477909094       17.3005821473      -16.0644447145  SOLV      3573            0.0000000000
     10832      3584  TIP3      H1             22.8170440140       16.7688984184      -16.5203421188  SOLV      3573            0.0000000000
     10833      3584  TIP3      H2             22.7134400630       17.8322864901      -15.4621051737  SOLV      3573            0.0000000000
     10834      3585  TIP3      OH2            30.0969322921        0.8530157061      -15.0743151385  SOLV      3574            0.0000000000
     10835      3585  TIP3      H1             29.2200922283        0.7580351096      -15.4865151477  SOLV      3574            0.0000000000
     10836      3585  TIP3      H2             30.4528344460       -0.0607471764      -15.1878920169  SOLV      3574            0.0000000000
     10837      3586  TIP3      OH2            12.6927440907       15.8799781938      -15.8350987903  SOLV      3575            0.0000000000
     10838      3586  TIP3      H1             11.7882466097       16.2027588386      -16.0502863315  SOLV      3575            0.0000000000
     10839      3586  TIP3      H2             12.8023553709       16.2610167451      -14.9556198048  SOLV      3575            0.0000000000
     10840      3587  TIP3      OH2            15.0766531908       15.6812052784      -17.2126743698  SOLV      3576            0.0000000000
     10841      3587  TIP3      H1             14.1937186618       15.7900945946      -16.7914662924  SOLV      3576            0.0000000000
     10842      3587  TIP3      H2             14.8883704288       15.9694831619      -18.1273667028  SOLV      3576            0.0000000000
     10843      3588  TIP3      OH2            19.3213278817       15.9253951329      -19.2441038946  SOLV      3577            0.0000000000
     10844      3588  TIP3      H1             18.6138033554       16.0639385944      -19.9006316011  SOLV      3577            0.0000000000
     10845      3588  TIP3      H2             19.4110592597       16.8176123669      -18.8564893804  SOLV      3577            0.0000000000
     10846      3589  TIP3      OH2            22.0148371819       15.3190938203      -18.6850982812  SOLV      3578            0.0000000000
     10847      3589  TIP3      H1             21.0850229807       15.4926606901      -18.9299590195  SOLV      3578            0.0000000000
     10848      3589  TIP3      H2             22.4865453730       16.0006049215      -19.1922879398  SOLV      3578            0.0000000000
     10849      3590  TIP3      OH2            24.0345085487       17.1907456601      -19.6200583744  SOLV      3579            0.0000000000
     10850      3590  TIP3      H1             23.9176993384       18.0347759707      -20.1077650321  SOLV      3579            0.0000000000
     10851      3590  TIP3      H2             24.3316021930       16.5893632265      -20.3398967828  SOLV      3579            0.0000000000
     10852      3591  TIP3      OH2            11.8246411658       13.7857294605      -18.3888261173  SOLV      3580            0.0000000000
     10853      3591  TIP3      H1             12.0834988463       13.4949791054      -17.4880154588  SOLV      3580            0.0000000000
     10854      3591  TIP3      H2             12.5434552175       13.3500478170      -18.9004314757  SOLV      3580            0.0000000000
     10855      3592  TIP3      OH2            13.7867518477       12.5199546198      -19.7761413480  SOLV      3581            0.0000000000
     10856      3592  TIP3      H1             13.9244709932       11.6779143395      -19.2785321489  SOLV      3581            0.0000000000
     10857      3592  TIP3      H2             14.7045563725       12.8613918700      -19.8157101941  SOLV      3581            0.0000000000
     10858      3593  TIP3      OH2            16.4680222653       13.4241477397      -19.7217758387  SOLV      3582            0.0000000000
     10859      3593  TIP3      H1             16.7508474978       12.4938095910      -19.8224389400  SOLV      3582            0.0000000000
     10860      3593  TIP3      H2             16.9566441008       13.6496956177      -18.9067249510  SOLV      3582            0.0000000000
     10861      3594  TIP3      OH2            21.8528509249       -0.0408165087      -19.0564565493  SOLV      3583            0.0000000000
     10862      3594  TIP3      H1             21.5993652513       -0.7404600801      -18.4217091042  SOLV      3583            0.0000000000
     10863      3594  TIP3      H2             22.6819393579       -0.4009822167      -19.4439582623  SOLV      3583            0.0000000000
     10864      3595  TIP3      OH2            14.7609106422       -3.0950912924      -18.7498138546  SOLV      3584            0.0000000000
     10865      3595  TIP3      H1             13.8570551407       -3.4651294130      -18.6898483555  SOLV      3584            0.0000000000
     10866      3595  TIP3      H2             15.2976397977       -3.8970649417      -18.5390442625  SOLV      3584            0.0000000000
     10867      3596  TIP3      OH2            12.2470131057       -4.1345194318      -22.4354870093  SOLV      3585            0.0000000000
     10868      3596  TIP3      H1             12.7600597785       -3.5974267529      -23.0623642512  SOLV      3585            0.0000000000
     10869      3596  TIP3      H2             12.2541507568       -3.5755791204      -21.6366235586  SOLV      3585            0.0000000000
     10870      3597  TIP3      OH2            19.0713587947       -2.5285468033      -19.9491963256  SOLV      3586            0.0000000000
     10871      3597  TIP3      H1             19.6574626425       -2.0550052464      -20.5597977460  SOLV      3586            0.0000000000
     10872      3597  TIP3      H2             19.4220071980       -2.2678948649      -19.0834295245  SOLV      3586            0.0000000000
     10873      3598  TIP3      OH2            24.1034114740       -1.1268713996      -20.1722743135  SOLV      3587            0.0000000000
     10874      3598  TIP3      H1             25.0073264406       -1.1584978113      -20.5376360478  SOLV      3587            0.0000000000
     10875      3598  TIP3      H2             24.1000527054       -1.9394082534      -19.6196443991  SOLV      3587            0.0000000000
     10876      3599  TIP3      OH2            24.8932772184       -1.8370894885      -24.4782353160  SOLV      3588            0.0000000000
     10877      3599  TIP3      H1             24.0687169456       -1.3766703256      -24.2327036620  SOLV      3588            0.0000000000
     10878      3599  TIP3      H2             24.7726938781       -2.6841633346      -23.9996183607  SOLV      3588            0.0000000000
     10879      3600  TIP3      OH2             9.6990990342       11.5626712009      -24.5183771577  SOLV      3589            0.0000000000
     10880      3600  TIP3      H1              8.8350007574       11.2343443235      -24.8303946926  SOLV      3589            0.0000000000
     10881      3600  TIP3      H2              9.6044954775       12.5053186021      -24.7410588850  SOLV      3589            0.0000000000
     10882      3601  TIP3      OH2            13.7542065089       -2.5835046567      -24.6754508250  SOLV      3590            0.0000000000
     10883      3601  TIP3      H1             14.2303569677       -3.2418749643      -25.2174560581  SOLV      3590            0.0000000000
     10884      3601  TIP3      H2             14.4969744508       -2.0621779013      -24.3069066915  SOLV      3590            0.0000000000
     10885      3602  TIP3      OH2            18.8206121653       -0.8153624036      -23.6398910661  SOLV      3591            0.0000000000
     10886      3602  TIP3      H1             19.4103977691       -1.2773801142      -23.0175428885  SOLV      3591            0.0000000000
     10887      3602  TIP3      H2             19.0318847740        0.1119676196      -23.3909295983  SOLV      3591            0.0000000000
     10888      3603  TIP3      OH2            17.3457852113       13.3270926056      -28.6240641959  SOLV      3592            0.0000000000
     10889      3603  TIP3      H1             18.2230135585       13.5984693221      -28.9777633280  SOLV      3592            0.0000000000
     10890      3603  TIP3      H2             17.1790207443       12.5507555752      -29.2050315616  SOLV      3592            0.0000000000
     10891      3604  TIP3      OH2            24.6379820556       14.5236529631      -27.7136964840  SOLV      3593            0.0000000000
     10892      3604  TIP3      H1             24.5619799115       13.5387715435      -27.7226563656  SOLV      3593            0.0000000000
     10893      3604  TIP3      H2             24.0957345459       14.7412346540      -28.4992393258  SOLV      3593            0.0000000000
     10894      3605  TIP3      OH2            16.6995069215       -0.0936890121       -9.8919946622  SOLV      3594            0.0000000000
     10895      3605  TIP3      H1             16.3122725121       -0.7422322445       -9.2828787673  SOLV      3594            0.0000000000
     10896      3605  TIP3      H2             17.6296204377       -0.0721621251       -9.5760403294  SOLV      3594            0.0000000000
     10897      3606  TIP3      OH2            19.1926064808       -0.0987465972       -8.6289860510  SOLV      3595            0.0000000000
     10898      3606  TIP3      H1             20.0267048298       -0.3095222965       -9.0814781184  SOLV      3595            0.0000000000
     10899      3606  TIP3      H2             19.1349048567       -0.8191760938       -7.9712769672  SOLV      3595            0.0000000000
     10900      3607  TIP3      OH2            10.4566982633       11.7387980991      -28.1065498832  SOLV      3596            0.0000000000
     10901      3607  TIP3      H1             10.4598544571       11.9209555712      -27.1561585938  SOLV      3596            0.0000000000
     10902      3607  TIP3      H2             11.3453087716       11.3391128856      -28.2482112046  SOLV      3596            0.0000000000
     10903      3608  TIP3      OH2            27.5236153922        0.5347014347      -10.7903444883  SOLV      3597            0.0000000000
     10904      3608  TIP3      H1             27.7037688366        0.2160556749       -9.8800273819  SOLV      3597            0.0000000000
     10905      3608  TIP3      H2             28.4156909408        0.4855136471      -11.1973347763  SOLV      3597            0.0000000000
     10906      3609  TIP3      OH2            26.8305106334       16.0195964973      -15.8373561970  SOLV      3598            0.0000000000
     10907      3609  TIP3      H1             26.0558792349       15.7225299429      -16.3593212525  SOLV      3598            0.0000000000
     10908      3609  TIP3      H2             26.6435630645       16.9778387719      -15.7772477803  SOLV      3598            0.0000000000
     10909      3610  TIP3      OH2            32.5378580315        8.8578739382      -20.7746714287  SOLV      3599            0.0000000000
     10910      3610  TIP3      H1             32.8025519413        8.0505928824      -20.3096238470  SOLV      3599            0.0000000000
     10911      3610  TIP3      H2             32.9863186772        9.5279800722      -20.2201338046  SOLV      3599            0.0000000000
     10912      3611  TIP3      OH2            32.3164534022       12.7893179656      -23.4581248238  SOLV      3600            0.0000000000
     10913      3611  TIP3      H1             32.2173901735       11.8216258894      -23.6182674758  SOLV      3600            0.0000000000
     10914      3611  TIP3      H2             32.9668746316       12.7683707563      -22.7312048538  SOLV      3600            0.0000000000
     10915      3612  TIP3      OH2            29.3556677731        5.0113889456      -25.7342920610  SOLV      3601            0.0000000000
     10916      3612  TIP3      H1             28.7585227486        5.7714955368      -25.6024723422  SOLV      3601            0.0000000000
     10917      3612  TIP3      H2             28.7099580621        4.3021731935      -25.8815368454  SOLV      3601            0.0000000000
     10918      3613  TIP3      OH2            29.8608749468        7.8194507498      -23.9099592960  SOLV      3602            0.0000000000
     10919      3613  TIP3      H1             30.2878959831        6.9830007637      -23.6133975842  SOLV      3602            0.0000000000
     10920      3613  TIP3      H2             30.4839632950        8.1284612663      -24.5834220251  SOLV      3602            0.0000000000
     10921      3614  TIP3      OH2            31.1123978023        5.5898005433      -22.9618627493  SOLV      3603            0.0000000000
     10922      3614  TIP3      H1             31.9629665279        5.3566530863      -22.5357756846  SOLV      3603            0.0000000000
     10923      3614  TIP3      H2             31.1507498487        4.9897828720      -23.7275005210  SOLV      3603            0.0000000000
     10924      3615  TIP3      OH2            34.2422584591        3.2643737147      -19.5655058865  SOLV      3604            0.0000000000
     10925      3615  TIP3      H1             33.6631149752        3.8246303613      -20.1024281060  SOLV      3604            0.0000000000
     10926      3615  TIP3      H2             33.9599044115        3.5041824420      -18.6634024957  SOLV      3604            0.0000000000
     10927      3616  TIP3      OH2            33.4104461211        4.6021469275      -21.8802216204  SOLV      3605            0.0000000000
     10928      3616  TIP3      H1             33.8517427282        5.4840431169      -21.9160691384  SOLV      3605            0.0000000000
     10929      3616  TIP3      H2             34.1939330827        4.0358251192      -22.0628324970  SOLV      3605            0.0000000000
     10930      3617  TIP3      OH2            34.0918007024       13.0899803183      -21.0670376083  SOLV      3606            0.0000000000
     10931      3617  TIP3      H1             34.0356233184       14.0632396279      -21.0183849762  SOLV      3606            0.0000000000
     10932      3617  TIP3      H2             33.5543000657       12.8510652005      -20.2922868847  SOLV      3606            0.0000000000
     10933      3618  TIP3      OH2            28.2769191000       10.1262940769      -28.2901364911  SOLV      3607            0.0000000000
     10934      3618  TIP3      H1             27.8648800561       10.6145578492      -29.0146332778  SOLV      3607            0.0000000000
     10935      3618  TIP3      H2             28.6693827122       10.8686390506      -27.7825148485  SOLV      3607            0.0000000000
     10936      3619  TIP3      OH2            33.1580348316        8.7871608769      -25.6970738637  SOLV      3608            0.0000000000
     10937      3619  TIP3      H1             32.9406320699        8.2814085793      -26.5031453081  SOLV      3608            0.0000000000
     10938      3619  TIP3      H2             34.1040288169        9.0034090167      -25.8617540825  SOLV      3608            0.0000000000
     10939      3620  TIP3      OH2            33.6257297105        9.9439269313      -18.4326208870  SOLV      3609            0.0000000000
     10940      3620  TIP3      H1             33.9019592710       10.7360564888      -17.9359465233  SOLV      3609            0.0000000000
     10941      3620  TIP3      H2             32.7828579305        9.7333922445      -17.9772371124  SOLV      3609            0.0000000000
     10942      3621  TIP3      OH2            34.1920479873       16.2484282184      -18.2939388515  SOLV      3610            0.0000000000
     10943      3621  TIP3      H1             33.9192194264       15.9200283197      -19.1614119784  SOLV      3610            0.0000000000
     10944      3621  TIP3      H2             33.4673425563       15.9595515724      -17.7091834705  SOLV      3610            0.0000000000
     10945      3622  TIP3      OH2            32.2932807013        7.2786519075      -27.8956684243  SOLV      3611            0.0000000000
     10946      3622  TIP3      H1             31.7314637519        7.8434969705      -28.4666729837  SOLV      3611            0.0000000000
     10947      3622  TIP3      H2             31.7393740822        6.4963913406      -27.8225921662  SOLV      3611            0.0000000000
     10948      3623  TIP3      OH2            30.1340351304       11.3476219194      -18.8821137761  SOLV      3612            0.0000000000
     10949      3623  TIP3      H1             29.4377671834       11.1405049793      -19.5400610341  SOLV      3612            0.0000000000
     10950      3623  TIP3      H2             30.4621414180       10.4611559888      -18.6291867434  SOLV      3612            0.0000000000
     10951      3624  TIP3      OH2            28.6360594339       13.2903274203      -22.5874657129  SOLV      3613            0.0000000000
     10952      3624  TIP3      H1             29.5984624164       13.2070357911      -22.6123565559  SOLV      3613            0.0000000000
     10953      3624  TIP3      H2             28.5222475131       14.0525591081      -22.0004430583  SOLV      3613            0.0000000000
     10954      3625  TIP3      OH2            30.2204895160       15.4087673600      -27.1605616350  SOLV      3614            0.0000000000
     10955      3625  TIP3      H1             30.8491880083       15.2942317918      -26.4239373858  SOLV      3614            0.0000000000
     10956      3625  TIP3      H2             29.8345949346       14.5205105097      -27.2123611084  SOLV      3614            0.0000000000
     10957      3626  TIP3      OH2            32.1507025099       13.2119348007      -19.0598816220  SOLV      3615            0.0000000000
     10958      3626  TIP3      H1             32.6753555958       12.9952440599      -18.2608758267  SOLV      3615            0.0000000000
     10959      3626  TIP3      H2             31.4256084999       12.5556323122      -18.9964211424  SOLV      3615            0.0000000000
     10960      3627  TIP3      OH2            34.6675572473        6.9828016079      -21.6576655771  SOLV      3616            0.0000000000
     10961      3627  TIP3      H1             34.4839159008        7.1073314591      -20.7081798778  SOLV      3616            0.0000000000
     10962      3627  TIP3      H2             35.2681010720        7.7071194552      -21.8504348338  SOLV      3616            0.0000000000
     10963      3628  TIP3      OH2            34.1554302488        5.3639501804      -26.1217697381  SOLV      3617            0.0000000000
     10964      3628  TIP3      H1             33.3166666503        5.1305512393      -25.6863836041  SOLV      3617            0.0000000000
     10965      3628  TIP3      H2             33.8787521283        6.0077162077      -26.7981622401  SOLV      3617            0.0000000000
     10966      3629  TIP3      OH2            34.0116926065        6.8073933014      -18.9257148884  SOLV      3618            0.0000000000
     10967      3629  TIP3      H1             34.0063105575        7.5626112775      -18.3161398895  SOLV      3618            0.0000000000
     10968      3629  TIP3      H2             33.7592066319        6.0646532329      -18.3390430077  SOLV      3618            0.0000000000
     10969      3630  TIP3      OH2            30.1007184444        2.3929064828      -23.6932909540  SOLV      3619            0.0000000000
     10970      3630  TIP3      H1             30.2413753460        2.6627358514      -22.7652920673  SOLV      3619            0.0000000000
     10971      3630  TIP3      H2             29.7248295968        1.5100034889      -23.5601463387  SOLV      3619            0.0000000000
     10972      3631  TIP3      OH2            29.3998400889        2.1186558086      -27.8427808454  SOLV      3620            0.0000000000
     10973      3631  TIP3      H1             29.6255945587        2.5476081478      -28.6949337080  SOLV      3620            0.0000000000
     10974      3631  TIP3      H2             28.6791695025        2.7097421851      -27.5469155948  SOLV      3620            0.0000000000
     10975      3632  TIP3      OH2            31.8030961681        4.0208035264      -25.2688274199  SOLV      3621            0.0000000000
     10976      3632  TIP3      H1             30.9427635003        4.3938729317      -25.5723867683  SOLV      3621            0.0000000000
     10977      3632  TIP3      H2             31.4719451977        3.2308269414      -24.7907651999  SOLV      3621            0.0000000000
     10978      3633  TIP3      OH2            32.7613285882        4.3272965887      -30.9438085664  SOLV      3622            0.0000000000
     10979      3633  TIP3      H1             31.9162329489        3.9664723666      -30.6301502208  SOLV      3622            0.0000000000
     10980      3633  TIP3      H2             33.2197706371        3.4804001445      -31.1370997809  SOLV      3622            0.0000000000
     10981      3634  TIP3      OH2            33.6660379475       12.3504460050      -16.8584278491  SOLV      3623            0.0000000000
     10982      3634  TIP3      H1             34.4743663023       12.6365758572      -16.3895095962  SOLV      3623            0.0000000000
     10983      3634  TIP3      H2             33.0439010602       12.2989217133      -16.1076932221  SOLV      3623            0.0000000000
     10984      3635  TIP3      OH2            32.3629049910       10.0786234449      -23.4558790191  SOLV      3624            0.0000000000
     10985      3635  TIP3      H1             32.6618286003        9.6142087463      -24.2720909744  SOLV      3624            0.0000000000
     10986      3635  TIP3      H2             32.5987539649        9.4467878835      -22.7585420031  SOLV      3624            0.0000000000
     10987      3636  TIP3      OH2            31.2022573968        9.1973174706      -17.4165076466  SOLV      3625            0.0000000000
     10988      3636  TIP3      H1             31.3603743598        8.9826438877      -16.4755430308  SOLV      3625            0.0000000000
     10989      3636  TIP3      H2             30.4997838972        8.5601549619      -17.6442368068  SOLV      3625            0.0000000000
     10990      3637  TIP3      OH2            29.2168632288        6.1086622601      -30.1940282790  SOLV      3626            0.0000000000
     10991      3637  TIP3      H1             29.6349704599        6.9477261483      -29.9109854849  SOLV      3626            0.0000000000
     10992      3637  TIP3      H2             28.4171047881        6.1052031203      -29.6237979434  SOLV      3626            0.0000000000
     10993      3638  TIP3      OH2            33.2561686141        4.3903180295      -17.2471103349  SOLV      3627            0.0000000000
     10994      3638  TIP3      H1             32.2799750077        4.4913775362      -17.1944452530  SOLV      3627            0.0000000000
     10995      3638  TIP3      H2             33.4181820004        3.6848388824      -16.5962219536  SOLV      3627            0.0000000000
     10996      3639  TIP3      OH2            30.5958689811       15.0604305542      -21.1049586632  SOLV      3628            0.0000000000
     10997      3639  TIP3      H1             31.1457025327       14.3604767264      -20.7108512356  SOLV      3628            0.0000000000
     10998      3639  TIP3      H2             30.8115760024       15.8059134303      -20.5304245631  SOLV      3628            0.0000000000
     10999      3640  TIP3      OH2            30.3031031234        8.5369825977      -29.4320486900  SOLV      3629            0.0000000000
     11000      3640  TIP3      H1             29.6768270144        9.1338510701      -28.9729845490  SOLV      3629            0.0000000000
     11001      3640  TIP3      H2             30.1299018107        8.7733648812      -30.3747507649  SOLV      3629            0.0000000000
     11002      3641  TIP3      OH2            29.7701902876        3.4412105392      -30.2247163553  SOLV      3630            0.0000000000
     11003      3641  TIP3      H1             29.6308513235        4.4143351671      -30.2204605454  SOLV      3630            0.0000000000
     11004      3641  TIP3      H2             29.0570896513        3.1606544243      -30.8276066144  SOLV      3630            0.0000000000
     11005      3642  TIP3      OH2            32.3770745918        0.3931655450      -20.7655266853  SOLV      3631            0.0000000000
     11006      3642  TIP3      H1             32.2882134947        0.2024258976      -21.7236022525  SOLV      3631            0.0000000000
     11007      3642  TIP3      H2             32.7185164069       -0.4653128964      -20.4482856039  SOLV      3631            0.0000000000
     11008      3643  TIP3      OH2            28.8424679963       12.7177185715      -27.5223079057  SOLV      3632            0.0000000000
     11009      3643  TIP3      H1             28.2023302671       13.0710077068      -26.8897957916  SOLV      3632            0.0000000000
     11010      3643  TIP3      H2             28.5669990964       13.1759709930      -28.3501372206  SOLV      3632            0.0000000000
     11011      3644  TIP3      OH2            30.4793943091       18.2255428638      -16.8733455114  SOLV      3633            0.0000000000
     11012      3644  TIP3      H1             31.3508246359       18.1240994542      -16.4419500879  SOLV      3633            0.0000000000
     11013      3644  TIP3      H2             30.2009007150       17.2949754329      -16.9226418782  SOLV      3633            0.0000000000
     11014      3645  TIP3      OH2            31.7373721008       12.2516385971      -14.8483402909  SOLV      3634            0.0000000000
     11015      3645  TIP3      H1             31.8894693487       11.2918585876      -14.7715777587  SOLV      3634            0.0000000000
     11016      3645  TIP3      H2             30.8784001961       12.2799126972      -15.3244030822  SOLV      3634            0.0000000000
     11017      3646  TIP3      OH2            33.0855448369        9.6271929955      -15.0797425222  SOLV      3635            0.0000000000
     11018      3646  TIP3      H1             33.9135067115        9.2304214212      -15.3942939745  SOLV      3635            0.0000000000
     11019      3646  TIP3      H2             33.3444491254        9.9355521895      -14.1887172524  SOLV      3635            0.0000000000
     11020      3647  TIP3      OH2            35.7244316018        7.8869060854      -15.2309250338  SOLV      3636            0.0000000000
     11021      3647  TIP3      H1             35.1785379764        7.1605507131      -14.8717226305  SOLV      3636            0.0000000000
     11022      3647  TIP3      H2             36.5482345002        7.3874992579      -15.3673249011  SOLV      3636            0.0000000000
     11023      3648  TIP3      OH2            34.6193052879        5.4869293901      -14.3688334606  SOLV      3637            0.0000000000
     11024      3648  TIP3      H1             35.2083111690        4.9434409786      -14.9149634968  SOLV      3637            0.0000000000
     11025      3648  TIP3      H2             34.7616977411        5.0884054865      -13.4874650008  SOLV      3637            0.0000000000
     11026      3649  TIP3      OH2            26.6363864079       16.2793174045      -26.9731561637  SOLV      3638            0.0000000000
     11027      3649  TIP3      H1             25.9697102967       15.6337919628      -27.2919187542  SOLV      3638            0.0000000000
     11028      3649  TIP3      H2             27.1248247978       15.7286624106      -26.3231308653  SOLV      3638            0.0000000000
     11029      3650  TIP3      OH2            27.9399320153       14.7555011731      -25.0563189115  SOLV      3639            0.0000000000
     11030      3650  TIP3      H1             27.8810639750       14.0682852179      -24.3697981781  SOLV      3639            0.0000000000
     11031      3650  TIP3      H2             28.5105423117       15.4012063517      -24.6032583532  SOLV      3639            0.0000000000
     11032      3651  TIP3      OH2            29.8528692519        8.8574269257      -21.3492481502  SOLV      3640            0.0000000000
     11033      3651  TIP3      H1             29.8016281618        8.5635486804      -22.2857342418  SOLV      3640            0.0000000000
     11034      3651  TIP3      H2             30.8273372923        8.9328840297      -21.2411938705  SOLV      3640            0.0000000000
     11035      3652  TIP3      OH2            31.9302922485        5.7770432803      -14.4872886527  SOLV      3641            0.0000000000
     11036      3652  TIP3      H1             32.9032658500        5.7075938516      -14.5904974219  SOLV      3641            0.0000000000
     11037      3652  TIP3      H2             31.7233093752        4.8757918483      -14.1678496036  SOLV      3641            0.0000000000
     11038      3653  TIP3      OH2            31.1703304284        2.8496929053      -21.1405455785  SOLV      3642            0.0000000000
     11039      3653  TIP3      H1             31.5598715106        1.9818029876      -20.8927503705  SOLV      3642            0.0000000000
     11040      3653  TIP3      H2             31.9618183402        3.3527379935      -21.3958305627  SOLV      3642            0.0000000000
     11041      3654  TIP3      OH2            29.6779109361        5.4478602793      -20.5119594342  SOLV      3643            0.0000000000
     11042      3654  TIP3      H1             30.0940280110        5.1839567456      -21.3534370292  SOLV      3643            0.0000000000
     11043      3654  TIP3      H2             30.0676109019        6.3141189080      -20.3704459628  SOLV      3643            0.0000000000
     11044      3655  TIP3      OH2            29.3905003275        0.2227971687      -25.7981692278  SOLV      3644            0.0000000000
     11045      3655  TIP3      H1             28.6053459286        0.3262513006      -25.2328679663  SOLV      3644            0.0000000000
     11046      3655  TIP3      H2             29.4557942737        1.0796984227      -26.2586988528  SOLV      3644            0.0000000000
     11047      3656  TIP3      OH2            31.6313747038        1.2137408027      -17.4434459527  SOLV      3645            0.0000000000
     11048      3656  TIP3      H1             31.1697256624        1.2787723610      -16.5943526948  SOLV      3645            0.0000000000
     11049      3656  TIP3      H2             31.0198728357        1.7078948452      -18.0254896889  SOLV      3645            0.0000000000
     11050      3657  TIP3      OH2            32.0699419200       15.6205125489      -16.5338886916  SOLV      3646            0.0000000000
     11051      3657  TIP3      H1             31.1893991981       15.3237467241      -16.8263699070  SOLV      3646            0.0000000000
     11052      3657  TIP3      H2             32.1390423816       15.2009951424      -15.6675591962  SOLV      3646            0.0000000000
     11053      3658  TIP3      OH2            33.8585644991       15.8459732822      -21.2106763635  SOLV      3647            0.0000000000
     11054      3658  TIP3      H1             33.3273556323       16.5575621206      -21.6258634460  SOLV      3647            0.0000000000
     11055      3658  TIP3      H2             34.7352438361       16.0974626136      -21.5116391611  SOLV      3647            0.0000000000
     11056      3659  TIP3      OH2            30.6665456113       18.4279796502      -20.8838296900  SOLV      3648            0.0000000000
     11057      3659  TIP3      H1             29.7754546072       18.7524195444      -21.1450452174  SOLV      3648            0.0000000000
     11058      3659  TIP3      H2             30.7687639933       18.8814354797      -20.0351263900  SOLV      3648            0.0000000000
     11059      3660  TIP3      OH2            32.8305668099       18.0645510154      -22.4922187839  SOLV      3649            0.0000000000
     11060      3660  TIP3      H1             32.0862482309       18.2346825445      -21.8703038363  SOLV      3649            0.0000000000
     11061      3660  TIP3      H2             32.4737009330       18.4482002334      -23.2987351967  SOLV      3649            0.0000000000
     11062      3661  TIP3      OH2            29.7750149998       16.3263984494      -23.5034380617  SOLV      3650            0.0000000000
     11063      3661  TIP3      H1             30.0619310719       16.0237640627      -22.6163958476  SOLV      3650            0.0000000000
     11064      3661  TIP3      H2             30.4614075422       15.8820831262      -24.0494015831  SOLV      3650            0.0000000000
     11065      3662  TIP3      OH2            31.7299906069       14.9961469225      -24.8664293604  SOLV      3651            0.0000000000
     11066      3662  TIP3      H1             31.7814110159       14.1118574589      -24.4243956289  SOLV      3651            0.0000000000
     11067      3662  TIP3      H2             32.6602555532       15.2358091200      -24.8397467415  SOLV      3651            0.0000000000
     11068      3663  TIP3      OH2            32.6356109565       -0.1738189709      -23.4243376197  SOLV      3652            0.0000000000
     11069      3663  TIP3      H1             31.7841530659       -0.6509013171      -23.5687902071  SOLV      3652            0.0000000000
     11070      3663  TIP3      H2             33.0077696625       -0.1316819295      -24.3209893221  SOLV      3652            0.0000000000
     11071      3664  TIP3      OH2            30.2381388980       -1.7389030454      -27.3989356742  SOLV      3653            0.0000000000
     11072      3664  TIP3      H1             30.5016848010       -1.1852756469      -28.1572127313  SOLV      3653            0.0000000000
     11073      3664  TIP3      H2             29.9940798282       -1.0516484254      -26.7320609013  SOLV      3653            0.0000000000
     11074      3665  TIP3      OH2            27.6778618423       14.1256160950      -29.4851927402  SOLV      3654            0.0000000000
     11075      3665  TIP3      H1             27.1432461310       13.7063724070      -30.1669305611  SOLV      3654            0.0000000000
     11076      3665  TIP3      H2             27.3023894908       15.0115310894      -29.4107614342  SOLV      3654            0.0000000000
     11077      3666  TIP3      OH2            31.1051677039       -0.1213508969      -29.5152731402  SOLV      3655            0.0000000000
     11078      3666  TIP3      H1             32.0611120625       -0.3444468745      -29.5654853560  SOLV      3655            0.0000000000
     11079      3666  TIP3      H2             31.1170454974        0.7652805593      -29.1266043227  SOLV      3655            0.0000000000
     11080      3667  TIP3      OH2            34.3205238397        2.1290681966      -15.2398833293  SOLV      3656            0.0000000000
     11081      3667  TIP3      H1             34.0325597277        1.5238921808      -14.5287072328  SOLV      3656            0.0000000000
     11082      3667  TIP3      H2             35.1812021472        2.4312915446      -14.8798567169  SOLV      3656            0.0000000000
     11083      3668  TIP3      OH2           -35.8072014824       17.2255468748      -11.1932121618  SOLV      3657            0.0000000000
     11084      3668  TIP3      H1            -35.9966255921       18.1779841129      -11.0908410331  SOLV      3657            0.0000000000
     11085      3668  TIP3      H2            -36.6577393066       16.9249264140      -11.5485399556  SOLV      3657            0.0000000000
     11086      3669  TIP3      OH2           -35.4454446025       17.3810338150       -7.6797187863  SOLV      3658            0.0000000000
     11087      3669  TIP3      H1            -35.6191345264       17.3024131553       -6.7176237295  SOLV      3658            0.0000000000
     11088      3669  TIP3      H2            -35.3692169839       16.4348719846       -7.9156278515  SOLV      3658            0.0000000000
     11089      3670  TIP3      OH2           -33.4771153522       20.5780930614      -10.6657798645  SOLV      3659            0.0000000000
     11090      3670  TIP3      H1            -33.5644877901       19.8760149048      -10.0015772727  SOLV      3659            0.0000000000
     11091      3670  TIP3      H2            -33.0909446661       21.2983720148      -10.1495724971  SOLV      3659            0.0000000000
     11092      3671  TIP3      OH2           -27.7740595360       13.0739599625       -6.9869089238  SOLV      3660            0.0000000000
     11093      3671  TIP3      H1            -27.4696197789       13.9080758088       -6.5758600955  SOLV      3660            0.0000000000
     11094      3671  TIP3      H2            -27.6736685381       13.2764940421       -7.9304370807  SOLV      3660            0.0000000000
     11095      3672  TIP3      OH2           -33.2852053742       14.9262361936       -6.7049438511  SOLV      3661            0.0000000000
     11096      3672  TIP3      H1            -32.9429556260       14.0160848739       -6.6551154315  SOLV      3661            0.0000000000
     11097      3672  TIP3      H2            -34.2272222542       14.7532534992       -6.9222947769  SOLV      3661            0.0000000000
     11098      3673  TIP3      OH2           -33.3986214373       12.2699907361      -10.8671899040  SOLV      3662            0.0000000000
     11099      3673  TIP3      H1            -32.7472216626       12.1481385916      -10.1367669857  SOLV      3662            0.0000000000
     11100      3673  TIP3      H2            -32.8235100236       12.6828843587      -11.5362677042  SOLV      3662            0.0000000000
     11101      3674  TIP3      OH2           -27.0199607168       15.1855410915       -5.3253964413  SOLV      3663            0.0000000000
     11102      3674  TIP3      H1            -27.8780968295       15.6073434788       -5.5508608358  SOLV      3663            0.0000000000
     11103      3674  TIP3      H2            -26.9288766096       15.4655143855       -4.4019139139  SOLV      3663            0.0000000000
     11104      3675  TIP3      OH2           -31.4476200061       12.4536980361       -9.0043645126  SOLV      3664            0.0000000000
     11105      3675  TIP3      H1            -31.7129145178       12.1058523388       -8.1393505460  SOLV      3664            0.0000000000
     11106      3675  TIP3      H2            -30.9967264280       13.2856569233       -8.7507882605  SOLV      3664            0.0000000000
     11107      3676  TIP3      OH2           -32.9309666271       23.1805277850       -8.9462815113  SOLV      3665            0.0000000000
     11108      3676  TIP3      H1            -33.8739812287       23.0228625635       -8.8495546455  SOLV      3665            0.0000000000
     11109      3676  TIP3      H2            -32.9273127817       24.0469526528       -9.4059815695  SOLV      3665            0.0000000000
     11110      3677  TIP3      OH2           -29.8613140376       12.0822897442       -5.3357216433  SOLV      3666            0.0000000000
     11111      3677  TIP3      H1            -30.7454521582       12.2940948944       -5.6824954112  SOLV      3666            0.0000000000
     11112      3677  TIP3      H2            -29.2733274866       12.4075381418       -6.0484270487  SOLV      3666            0.0000000000
     11113      3678  TIP3      OH2           -36.4443916940        8.5070239235       -5.4177534890  SOLV      3667            0.0000000000
     11114      3678  TIP3      H1            -36.7120248271        7.7634016608       -6.0020520670  SOLV      3667            0.0000000000
     11115      3678  TIP3      H2            -37.3228529242        8.8164562217       -5.1343666836  SOLV      3667            0.0000000000
     11116      3679  TIP3      OH2           -35.3896445356       23.5095373949      -11.9931712744  SOLV      3668            0.0000000000
     11117      3679  TIP3      H1            -34.9785028810       22.7171729764      -12.3975357816  SOLV      3668            0.0000000000
     11118      3679  TIP3      H2            -35.0753220965       24.1988950407      -12.6139430553  SOLV      3668            0.0000000000
     11119      3680  TIP3      OH2           -34.2735765197       21.3030397370      -13.2277918254  SOLV      3669            0.0000000000
     11120      3680  TIP3      H1            -34.3191074395       20.4910471576      -13.7612178632  SOLV      3669            0.0000000000
     11121      3680  TIP3      H2            -34.0261215225       20.9457007217      -12.3465492009  SOLV      3669            0.0000000000
     11122      3681  TIP3      OH2           -30.5097870716       22.1938689077       -5.5588814671  SOLV      3670            0.0000000000
     11123      3681  TIP3      H1            -30.6939374728       21.4062570253       -6.1182043156  SOLV      3670            0.0000000000
     11124      3681  TIP3      H2            -30.6996597262       22.9228172398       -6.1874929633  SOLV      3670            0.0000000000
     11125      3682  TIP3      OH2           -37.6940769865       16.0766193798      -13.0196784523  SOLV      3671            0.0000000000
     11126      3682  TIP3      H1            -38.4482017113       16.6735719462      -13.1253194431  SOLV      3671            0.0000000000
     11127      3682  TIP3      H2            -37.1821717130       16.2118510759      -13.8366651925  SOLV      3671            0.0000000000
     11128      3683  TIP3      OH2           -37.3970951070       13.6623983367      -15.6336533233  SOLV      3672            0.0000000000
     11129      3683  TIP3      H1            -36.8504488963       14.3546371855      -15.2003993609  SOLV      3672            0.0000000000
     11130      3683  TIP3      H2            -36.7142245839       13.2294046977      -16.1822299119  SOLV      3672            0.0000000000
     11131      3684  TIP3      OH2           -28.5897936312       18.6333828183       -7.0829592035  SOLV      3673            0.0000000000
     11132      3684  TIP3      H1            -29.4497344356       19.1077845553       -7.0332710332  SOLV      3673            0.0000000000
     11133      3684  TIP3      H2            -28.3096526214       18.8811667985       -7.9901521680  SOLV      3673            0.0000000000
     11134      3685  TIP3      OH2           -34.0254211718       16.9875850027      -13.2281896890  SOLV      3674            0.0000000000
     11135      3685  TIP3      H1            -34.5895445970       17.0844197016      -12.4229766816  SOLV      3674            0.0000000000
     11136      3685  TIP3      H2            -33.1784676314       16.7234206337      -12.8092279802  SOLV      3674            0.0000000000
     11137      3686  TIP3      OH2           -31.4220286893       17.4573144063       -3.9977656461  SOLV      3675            0.0000000000
     11138      3686  TIP3      H1            -31.6147125789       18.2181525546       -3.4204066277  SOLV      3675            0.0000000000
     11139      3686  TIP3      H2            -32.2656421332       17.4182143530       -4.5122323262  SOLV      3675            0.0000000000
     11140      3687  TIP3      OH2           -35.6283802601       15.6197779199      -14.9496049056  SOLV      3676            0.0000000000
     11141      3687  TIP3      H1            -35.0312563192       16.2303517516      -14.4618188528  SOLV      3676            0.0000000000
     11142      3687  TIP3      H2            -35.3622304718       15.8033485722      -15.8871408443  SOLV      3676            0.0000000000
     11143      3688  TIP3      OH2           -30.5730838439        8.0644725409      -14.3709326031  SOLV      3677            0.0000000000
     11144      3688  TIP3      H1            -31.4282982674        8.2938296888      -13.9603514537  SOLV      3677            0.0000000000
     11145      3688  TIP3      H2            -30.4765882155        8.7192168842      -15.0801631349  SOLV      3677            0.0000000000
     11146      3689  TIP3      OH2           -32.5965680076       21.5313500387      -18.9361973192  SOLV      3678            0.0000000000
     11147      3689  TIP3      H1            -32.5103791386       22.4702397192      -19.2080348178  SOLV      3678            0.0000000000
     11148      3689  TIP3      H2            -31.6872539118       21.2069033263      -19.1104708279  SOLV      3678            0.0000000000
     11149      3690  TIP3      OH2           -28.2019568802       25.6976517283       -5.0518724208  SOLV      3679            0.0000000000
     11150      3690  TIP3      H1            -28.1956669355       24.7313413835       -4.9020502506  SOLV      3679            0.0000000000
     11151      3690  TIP3      H2            -29.0312383539       25.9419328568       -4.5795561445  SOLV      3679            0.0000000000
     11152      3691  TIP3      OH2           -29.3242257293       16.9400019450       -2.2730147219  SOLV      3680            0.0000000000
     11153      3691  TIP3      H1            -30.1002234399       17.0637860859       -2.8584833115  SOLV      3680            0.0000000000
     11154      3691  TIP3      H2            -29.1468257322       15.9881676200       -2.4157869100  SOLV      3680            0.0000000000
     11155      3692  TIP3      OH2           -34.0841603025       10.4264785568       -2.0124202663  SOLV      3681            0.0000000000
     11156      3692  TIP3      H1            -33.1982926489       10.1267793909       -1.7112067504  SOLV      3681            0.0000000000
     11157      3692  TIP3      H2            -34.4644723710       10.7117958119       -1.1658492951  SOLV      3681            0.0000000000
     11158      3693  TIP3      OH2           -31.6300564736       14.6724088088       -3.0409175106  SOLV      3682            0.0000000000
     11159      3693  TIP3      H1            -32.1766835249       14.5525527388       -2.2315291894  SOLV      3682            0.0000000000
     11160      3693  TIP3      H2            -32.0265622933       15.4703013043       -3.4252518720  SOLV      3682            0.0000000000
     11161      3694  TIP3      OH2           -34.9234962673       15.9519014709      -17.5213192058  SOLV      3683            0.0000000000
     11162      3694  TIP3      H1            -34.9727139316       15.4277483808      -18.3363587985  SOLV      3683            0.0000000000
     11163      3694  TIP3      H2            -34.3885193593       16.7003840155      -17.8253858319  SOLV      3683            0.0000000000
     11164      3695  TIP3      OH2           -37.8397005565        9.8084121107      -15.0131112903  SOLV      3684            0.0000000000
     11165      3695  TIP3      H1            -37.7687213167        9.7909671943      -14.0302357952  SOLV      3684            0.0000000000
     11166      3695  TIP3      H2            -38.4056042549        9.0134129682      -15.0908752923  SOLV      3684            0.0000000000
     11167      3696  TIP3      OH2           -36.5378889272       13.9752226169      -11.6830009102  SOLV      3685            0.0000000000
     11168      3696  TIP3      H1            -36.9426493105       14.7641233046      -12.1095918671  SOLV      3685            0.0000000000
     11169      3696  TIP3      H2            -35.8736613121       13.7224768807      -12.3483920875  SOLV      3685            0.0000000000
     11170      3697  TIP3      OH2           -34.3578135800       17.0133577119       -0.1732507472  SOLV      3686            0.0000000000
     11171      3697  TIP3      H1            -34.2122202760       16.3574954505        0.5453315529  SOLV      3686            0.0000000000
     11172      3697  TIP3      H2            -33.4388072188       17.1465909734       -0.4619357660  SOLV      3686            0.0000000000
     11173      3698  TIP3      OH2           -34.3676809960       14.6688834676       -9.8390963800  SOLV      3687            0.0000000000
     11174      3698  TIP3      H1            -35.1884598586       14.8050812153      -10.3395402097  SOLV      3687            0.0000000000
     11175      3698  TIP3      H2            -34.1679674174       13.7392495753      -10.0474931866  SOLV      3687            0.0000000000
     11176      3699  TIP3      OH2           -33.7989588565       17.1004987271       -5.1735461945  SOLV      3688            0.0000000000
     11177      3699  TIP3      H1            -33.5956653763       16.3547921667       -5.7811431925  SOLV      3688            0.0000000000
     11178      3699  TIP3      H2            -34.3170634259       16.6369485940       -4.4825672194  SOLV      3688            0.0000000000
     11179      3700  TIP3      OH2           -32.8730027305       12.1947832139       -6.3269617830  SOLV      3689            0.0000000000
     11180      3700  TIP3      H1            -33.1779198468       12.3507741956       -5.4011665942  SOLV      3689            0.0000000000
     11181      3700  TIP3      H2            -33.6134789994       11.6483660969       -6.6474838362  SOLV      3689            0.0000000000
     11182      3701  TIP3      OH2           -31.2227789829       29.1015451881       -4.2439674919  SOLV      3690            0.0000000000
     11183      3701  TIP3      H1            -31.2507804510       29.2832134579       -5.2011010288  SOLV      3690            0.0000000000
     11184      3701  TIP3      H2            -30.4613380342       29.6523643829       -3.9801589403  SOLV      3690            0.0000000000
     11185      3702  TIP3      OH2           -35.9995742286       14.6773839016       -7.1727363716  SOLV      3691            0.0000000000
     11186      3702  TIP3      H1            -36.4320345452       14.1620027838       -7.8674922363  SOLV      3691            0.0000000000
     11187      3702  TIP3      H2            -36.7688892582       14.9357326572       -6.6335236236  SOLV      3691            0.0000000000
     11188      3703  TIP3      OH2           -30.9362823454       20.0531746981       -7.2290536274  SOLV      3692            0.0000000000
     11189      3703  TIP3      H1            -30.7009205750       20.5615247596       -8.0325693464  SOLV      3692            0.0000000000
     11190      3703  TIP3      H2            -31.7588882467       19.5933630310       -7.5177441510  SOLV      3692            0.0000000000
     11191      3704  TIP3      OH2           -35.3379224169       10.9348026086      -15.3019232954  SOLV      3693            0.0000000000
     11192      3704  TIP3      H1            -36.2691249886       10.7511670601      -15.0950719416  SOLV      3693            0.0000000000
     11193      3704  TIP3      H2            -35.1786312928       11.7975402065      -14.7709669644  SOLV      3693            0.0000000000
     11194      3705  TIP3      OH2           -34.6319555195       13.2135233658      -13.8237845263  SOLV      3694            0.0000000000
     11195      3705  TIP3      H1            -33.6862085329       13.2368109285      -13.5784064862  SOLV      3694            0.0000000000
     11196      3705  TIP3      H2            -34.7434883062       14.0745281134      -14.2665106518  SOLV      3694            0.0000000000
     11197      3706  TIP3      OH2           -30.2325586804       14.1529875677      -15.4970935724  SOLV      3695            0.0000000000
     11198      3706  TIP3      H1            -30.8966507005       13.7710886053      -16.1235937165  SOLV      3695            0.0000000000
     11199      3706  TIP3      H2            -30.2499747673       15.0683987899      -15.8507210687  SOLV      3695            0.0000000000
     11200      3707  TIP3      OH2           -28.0266690587       22.8455733493       -4.6980578456  SOLV      3696            0.0000000000
     11201      3707  TIP3      H1            -29.0007897771       22.7339195031       -4.7690510646  SOLV      3696            0.0000000000
     11202      3707  TIP3      H2            -27.7613004734       22.5036216223       -5.5818187047  SOLV      3696            0.0000000000
     11203      3708  TIP3      OH2           -33.1168522631       22.3701155640      -16.3001083904  SOLV      3697            0.0000000000
     11204      3708  TIP3      H1            -33.5414246099       21.7648662954      -15.6726680523  SOLV      3697            0.0000000000
     11205      3708  TIP3      H2            -33.0090520692       21.8202592666      -17.0972571969  SOLV      3697            0.0000000000
     11206      3709  TIP3      OH2           -33.1368711929       18.7639811136       -8.2658828133  SOLV      3698            0.0000000000
     11207      3709  TIP3      H1            -34.0001399473       18.3894780139       -7.9835684341  SOLV      3698            0.0000000000
     11208      3709  TIP3      H2            -32.7374357041       17.9425910172       -8.6271395783  SOLV      3698            0.0000000000
     11209      3710  TIP3      OH2           -34.4290526152       20.8401568671       -5.3581095333  SOLV      3699            0.0000000000
     11210      3710  TIP3      H1            -35.3313507449       20.7539280297       -5.0052432633  SOLV      3699            0.0000000000
     11211      3710  TIP3      H2            -34.4058511521       20.1362850039       -6.0189811272  SOLV      3699            0.0000000000
     11212      3711  TIP3      OH2           -35.4675373980       19.1169387820      -17.2504851636  SOLV      3700            0.0000000000
     11213      3711  TIP3      H1            -35.0428510298       19.0505712913      -16.3695651997  SOLV      3700            0.0000000000
     11214      3711  TIP3      H2            -36.3110470612       19.5419401301      -17.0377231384  SOLV      3700            0.0000000000
     11215      3712  TIP3      OH2           -32.8723597525       25.9803745829       -5.7998162620  SOLV      3701            0.0000000000
     11216      3712  TIP3      H1            -33.6723487615       25.8162462190       -5.2787198113  SOLV      3701            0.0000000000
     11217      3712  TIP3      H2            -33.1527348452       26.7206751605       -6.3730631194  SOLV      3701            0.0000000000
     11218      3713  TIP3      OH2           -32.2993310462       24.2584656676      -19.3846531091  SOLV      3702            0.0000000000
     11219      3713  TIP3      H1            -31.8599258753       24.8153348931      -20.0617885627  SOLV      3702            0.0000000000
     11220      3713  TIP3      H2            -32.6950789414       24.9131970021      -18.7902163205  SOLV      3702            0.0000000000
     11221      3714  TIP3      OH2           -33.9434857358       19.0786213519      -14.9596986002  SOLV      3703            0.0000000000
     11222      3714  TIP3      H1            -34.0161629402       18.3498961933      -14.3056701985  SOLV      3703            0.0000000000
     11223      3714  TIP3      H2            -32.9938070174       18.9961040948      -15.1990085342  SOLV      3703            0.0000000000
     11224      3715  TIP3      OH2           -33.6724952558       12.6103016253       -3.7500340731  SOLV      3704            0.0000000000
     11225      3715  TIP3      H1            -33.0848803215       13.2335729805       -3.2941160269  SOLV      3704            0.0000000000
     11226      3715  TIP3      H2            -33.8487993423       11.9451254392       -3.0585787377  SOLV      3704            0.0000000000
     11227      3716  TIP3      OH2           -34.7120181176       10.3040640350      -12.1753792309  SOLV      3705            0.0000000000
     11228      3716  TIP3      H1            -34.9796054865       10.7597634003      -12.9807130787  SOLV      3705            0.0000000000
     11229      3716  TIP3      H2            -34.3013837828       11.0378338717      -11.6582828605  SOLV      3705            0.0000000000
     11230      3717  TIP3      OH2           -37.7237967154       11.5751624332      -10.8296156378  SOLV      3706            0.0000000000
     11231      3717  TIP3      H1            -37.2843595015       12.3960407765      -11.1276762957  SOLV      3706            0.0000000000
     11232      3717  TIP3      H2            -38.5854292645       11.9002705345      -10.5067941282  SOLV      3706            0.0000000000
     11233      3718  TIP3      OH2           -34.5439714755       15.5663765013       -3.0043821960  SOLV      3707            0.0000000000
     11234      3718  TIP3      H1            -34.8880754802       15.8219344463       -2.1385469771  SOLV      3707            0.0000000000
     11235      3718  TIP3      H2            -34.9892290870       14.7194352361       -3.1672319478  SOLV      3707            0.0000000000
     11236      3719  TIP3      OH2           -35.8852254047        9.2538979027       -9.8861946839  SOLV      3708            0.0000000000
     11237      3719  TIP3      H1            -35.8882292716       10.0418172429       -9.3249544683  SOLV      3708            0.0000000000
     11238      3719  TIP3      H2            -35.7048085290        9.6429266158      -10.7667910272  SOLV      3708            0.0000000000
     11239      3720  TIP3      OH2           -28.9628255758       14.2990331110       -3.1305851813  SOLV      3709            0.0000000000
     11240      3720  TIP3      H1            -29.9427522862       14.3078514343       -3.0246572099  SOLV      3709            0.0000000000
     11241      3720  TIP3      H2            -28.9004643518       13.7889213708       -3.9506237027  SOLV      3709            0.0000000000
     11242      3721  TIP3      OH2           -32.2690860460       16.3435477356       -9.2545346650  SOLV      3710            0.0000000000
     11243      3721  TIP3      H1            -33.0895512677       15.7976138723       -9.2649019890  SOLV      3710            0.0000000000
     11244      3721  TIP3      H2            -31.6845185542       15.7841884371       -8.7043491919  SOLV      3710            0.0000000000
     11245      3722  TIP3      OH2           -32.7447909958       25.8345278081       -9.7099714806  SOLV      3711            0.0000000000
     11246      3722  TIP3      H1            -33.1925406999       26.2334215635      -10.4884439931  SOLV      3711            0.0000000000
     11247      3722  TIP3      H2            -31.8069757836       26.0337345925       -9.9390642441  SOLV      3711            0.0000000000
     11248      3723  TIP3      OH2           -33.9396482381       25.1997266385       -2.1764590247  SOLV      3712            0.0000000000
     11249      3723  TIP3      H1            -33.9584924976       24.2353933917       -2.1932326562  SOLV      3712            0.0000000000
     11250      3723  TIP3      H2            -33.0492070807       25.4032549270       -1.8415813422  SOLV      3712            0.0000000000
     11251      3724  TIP3      OH2           -32.3807670659       21.4368153919       -3.6574170334  SOLV      3713            0.0000000000
     11252      3724  TIP3      H1            -31.6844082535       21.8189216310       -4.2264700803  SOLV      3713            0.0000000000
     11253      3724  TIP3      H2            -33.0921999404       21.2614252865       -4.3141716532  SOLV      3713            0.0000000000
     11254      3725  TIP3      OH2           -33.5069322114       20.0817957769       -0.2145233786  SOLV      3714            0.0000000000
     11255      3725  TIP3      H1            -32.6980973256       19.8475973898       -0.6978439792  SOLV      3714            0.0000000000
     11256      3725  TIP3      H2            -33.4890584409       19.4429600335        0.5199517644  SOLV      3714            0.0000000000
     11257      3726  TIP3      OH2           -31.4577618896       17.0359160413        0.2206185005  SOLV      3715            0.0000000000
     11258      3726  TIP3      H1            -31.1133939659       16.1334258265        0.2900822142  SOLV      3715            0.0000000000
     11259      3726  TIP3      H2            -30.8078341762       17.4393304122       -0.3758023295  SOLV      3715            0.0000000000
     11260      3727  TIP3      OH2           -31.2844540707       19.5915290549       -2.0833027467  SOLV      3716            0.0000000000
     11261      3727  TIP3      H1            -31.8115430510       20.2713862546       -2.5735402629  SOLV      3716            0.0000000000
     11262      3727  TIP3      H2            -30.4162588574       19.7399048829       -2.5205726659  SOLV      3716            0.0000000000
     11263      3728  TIP3      OH2           -32.7991985898       13.9844084716       -0.7188467186  SOLV      3717            0.0000000000
     11264      3728  TIP3      H1            -33.3985485342       14.1097522147        0.0458232767  SOLV      3717            0.0000000000
     11265      3728  TIP3      H2            -31.9594855890       13.8077444815       -0.2546688317  SOLV      3717            0.0000000000
     11266      3729  TIP3      OH2           -30.4730344139       13.7460880375        0.7999250549  SOLV      3718            0.0000000000
     11267      3729  TIP3      H1            -30.4214337473       12.7711291055        0.8983048132  SOLV      3718            0.0000000000
     11268      3729  TIP3      H2            -30.7211883573       14.0353555862        1.7019824694  SOLV      3718            0.0000000000
     11269      3730  TIP3      OH2           -35.4069861470        9.4487730173        0.8307898171  SOLV      3719            0.0000000000
     11270      3730  TIP3      H1            -34.6888883259        8.7862335468        0.9126398579  SOLV      3719            0.0000000000
     11271      3730  TIP3      H2            -36.1878059316        8.8616903777        0.7614233008  SOLV      3719            0.0000000000
     11272      3731  TIP3      OH2           -35.5289136664       12.0852249322        3.2114095017  SOLV      3720            0.0000000000
     11273      3731  TIP3      H1            -35.2103978895       11.5875072609        2.4445998608  SOLV      3720            0.0000000000
     11274      3731  TIP3      H2            -35.1402922234       12.9682792097        3.0214509100  SOLV      3720            0.0000000000
     11275      3732  TIP3      OH2           -30.1863061516       26.6229492855      -10.1296270398  SOLV      3721            0.0000000000
     11276      3732  TIP3      H1            -29.8664354544       26.8788823616       -9.2438514603  SOLV      3721            0.0000000000
     11277      3732  TIP3      H2            -29.5280160963       27.0322170215      -10.7121664996  SOLV      3721            0.0000000000
     11278      3733  TIP3      OH2           -29.6502645177       26.6520330887       -7.3614392464  SOLV      3722            0.0000000000
     11279      3733  TIP3      H1            -30.1715222988       25.8211805690       -7.4219684146  SOLV      3722            0.0000000000
     11280      3733  TIP3      H2            -28.9744705700       26.3703823970       -6.7190161571  SOLV      3722            0.0000000000
     11281      3734  TIP3      OH2           -29.4589677211       23.6611843084       -1.6046182144  SOLV      3723            0.0000000000
     11282      3734  TIP3      H1            -30.1659520197       23.7608587202       -0.9356772868  SOLV      3723            0.0000000000
     11283      3734  TIP3      H2            -29.0170473166       24.5331433530       -1.5636607750  SOLV      3723            0.0000000000
     11284      3735  TIP3      OH2           -31.2544699162       18.7589703530      -15.4636439679  SOLV      3724            0.0000000000
     11285      3735  TIP3      H1            -30.5775673598       19.3952829984      -15.7658755682  SOLV      3724            0.0000000000
     11286      3735  TIP3      H2            -30.7966922375       18.3466838003      -14.6973161969  SOLV      3724            0.0000000000
     11287      3736  TIP3      OH2           -29.9737750360       17.4475153056      -13.3929443253  SOLV      3725            0.0000000000
     11288      3736  TIP3      H1            -30.6421630694       17.0174075079      -12.8135274998  SOLV      3725            0.0000000000
     11289      3736  TIP3      H2            -29.3471811843       17.8200532691      -12.7400349951  SOLV      3725            0.0000000000
     11290      3737  TIP3      OH2           -29.4233594572       21.4331197102       -9.0981352619  SOLV      3726            0.0000000000
     11291      3737  TIP3      H1            -28.8968075212       20.7222638695       -9.5180120601  SOLV      3726            0.0000000000
     11292      3737  TIP3      H2            -29.4193330876       22.1282325888       -9.7841351563  SOLV      3726            0.0000000000
     11293      3738  TIP3      OH2           -31.1281253826       24.3448161418       -7.1861043061  SOLV      3727            0.0000000000
     11294      3738  TIP3      H1            -31.8294538265       24.8397001550       -6.7104454093  SOLV      3727            0.0000000000
     11295      3738  TIP3      H2            -31.6513832556       23.8880152092       -7.8796186421  SOLV      3727            0.0000000000
     11296      3739  TIP3      OH2           -30.6401977231       16.4977624388      -17.0361085812  SOLV      3728            0.0000000000
     11297      3739  TIP3      H1            -31.2342267237       16.3435350282      -17.8115635039  SOLV      3728            0.0000000000
     11298      3739  TIP3      H2            -31.0835598835       17.2540134550      -16.6038943514  SOLV      3728            0.0000000000
     11299      3740  TIP3      OH2           -31.9562105880       13.3087126702      -17.4117073205  SOLV      3729            0.0000000000
     11300      3740  TIP3      H1            -32.1581804586       13.8554679918      -18.1912763290  SOLV      3729            0.0000000000
     11301      3740  TIP3      H2            -32.2951431315       12.4313833208      -17.6618228240  SOLV      3729            0.0000000000
     11302      3741  TIP3      OH2           -31.8153583601       16.0393501303      -11.9261545667  SOLV      3730            0.0000000000
     11303      3741  TIP3      H1            -31.8159817647       15.0706438403      -11.9652667611  SOLV      3730            0.0000000000
     11304      3741  TIP3      H2            -31.9617498371       16.2001314971      -10.9633463606  SOLV      3730            0.0000000000
     11305      3742  TIP3      OH2           -28.9194677040       20.3021195685       -3.3299022424  SOLV      3731            0.0000000000
     11306      3742  TIP3      H1            -28.2301501603       19.6154756647       -3.4724045479  SOLV      3731            0.0000000000
     11307      3742  TIP3      H2            -28.7300393170       20.9365949172       -4.0376109498  SOLV      3731            0.0000000000
     11308      3743  TIP3      OH2           -27.1575365339       18.2552953730       -3.3036993783  SOLV      3732            0.0000000000
     11309      3743  TIP3      H1            -27.9044619937       17.7733099203       -2.8887846405  SOLV      3732            0.0000000000
     11310      3743  TIP3      H2            -26.4230258151       17.6347142252       -3.1024229083  SOLV      3732            0.0000000000
     11311      3744  TIP3      OH2           -32.4363686010       10.4695963193      -17.5650747946  SOLV      3733            0.0000000000
     11312      3744  TIP3      H1            -31.5270812858       10.3490725677      -17.1980391549  SOLV      3733            0.0000000000
     11313      3744  TIP3      H2            -32.9685273566       10.0938432101      -16.8561032477  SOLV      3733            0.0000000000
     11314      3745  TIP3      OH2           -31.9070689148       13.1962979385      -13.0551098738  SOLV      3734            0.0000000000
     11315      3745  TIP3      H1            -31.4979758749       12.3102169368      -12.9004620904  SOLV      3734            0.0000000000
     11316      3745  TIP3      H2            -31.3186607242       13.5341641939      -13.7520074543  SOLV      3734            0.0000000000
     11317      3746  TIP3      OH2           -30.2584953885       14.8014699074       -8.0485264802  SOLV      3735            0.0000000000
     11318      3746  TIP3      H1            -29.4093714858       15.1028389371       -8.4392495982  SOLV      3735            0.0000000000
     11319      3746  TIP3      H2            -30.1784884502       15.2048833642       -7.1627575130  SOLV      3735            0.0000000000
     11320      3747  TIP3      OH2           -29.4906122140       16.3478634271       -5.7982387996  SOLV      3736            0.0000000000
     11321      3747  TIP3      H1            -30.2045404263       16.6807212488       -5.2171993832  SOLV      3736            0.0000000000
     11322      3747  TIP3      H2            -29.2031015397       17.1742783457       -6.2402707198  SOLV      3736            0.0000000000
     11323      3748  TIP3      OH2           -25.0739997261       12.3314573714       -0.1968042995  SOLV      3737            0.0000000000
     11324      3748  TIP3      H1            -24.4575672975       11.6897180498       -0.6133625680  SOLV      3737            0.0000000000
     11325      3748  TIP3      H2            -25.3959025622       12.8310034807       -0.9781941185  SOLV      3737            0.0000000000
     11326      3749  TIP3      OH2           -30.8232671868       10.7326864246      -12.6389725655  SOLV      3738            0.0000000000
     11327      3749  TIP3      H1            -30.3561019358       10.5742407673      -11.7888944783  SOLV      3738            0.0000000000
     11328      3749  TIP3      H2            -31.4174222810        9.9536345682      -12.6546742420  SOLV      3738            0.0000000000
     11329      3750  TIP3      OH2           -26.4190783255       13.6500384975       -2.1696528494  SOLV      3739            0.0000000000
     11330      3750  TIP3      H1            -27.2743908133       14.1001024557       -2.0148598310  SOLV      3739            0.0000000000
     11331      3750  TIP3      H2            -26.7312133660       12.9064411368       -2.7251255969  SOLV      3739            0.0000000000
     11332      3751  TIP3      OH2           -29.9701763211        9.8665472991      -16.5054114041  SOLV      3740            0.0000000000
     11333      3751  TIP3      H1            -29.6034104310        9.0613576981      -16.9192395344  SOLV      3740            0.0000000000
     11334      3751  TIP3      H2            -29.2519370917       10.4996704342      -16.6079446194  SOLV      3740            0.0000000000
     11335      3752  TIP3      OH2           -34.3666051026       25.3525122872      -13.7288668140  SOLV      3741            0.0000000000
     11336      3752  TIP3      H1            -33.6642115479       25.2796643441      -14.3905793514  SOLV      3741            0.0000000000
     11337      3752  TIP3      H2            -34.0002703599       25.9842463328      -13.0846190071  SOLV      3741            0.0000000000
     11338      3753  TIP3      OH2           -27.3964791638       11.2867849310       -3.3196208377  SOLV      3742            0.0000000000
     11339      3753  TIP3      H1            -28.2839634821       11.1735723060       -3.7043580458  SOLV      3742            0.0000000000
     11340      3753  TIP3      H2            -27.0366613308       10.3726923392       -3.4138207162  SOLV      3742            0.0000000000
     11341      3754  TIP3      OH2           -33.2275101043       27.8389510880       -7.9227895248  SOLV      3743            0.0000000000
     11342      3754  TIP3      H1            -33.8563397662       28.2502744813       -8.5282086599  SOLV      3743            0.0000000000
     11343      3754  TIP3      H2            -33.0002465730       27.0349981594       -8.4421239058  SOLV      3743            0.0000000000
     11344      3755  TIP3      OH2           -35.2678741762       10.5041844322       -7.0426614163  SOLV      3744            0.0000000000
     11345      3755  TIP3      H1            -35.6909924640        9.7657517155       -6.5584496326  SOLV      3744            0.0000000000
     11346      3755  TIP3      H2            -34.5518387093       10.0373283840       -7.5149693719  SOLV      3744            0.0000000000
     11347      3756  TIP3      OH2           -30.1740060070        9.2494908526       -8.1731212070  SOLV      3745            0.0000000000
     11348      3756  TIP3      H1            -29.8262684112        9.8040272799       -8.9049549296  SOLV      3745            0.0000000000
     11349      3756  TIP3      H2            -31.1237174424        9.4728531176       -8.1878391648  SOLV      3745            0.0000000000
     11350      3757  TIP3      OH2           -29.1834205390       10.3208134665      -10.4871978653  SOLV      3746            0.0000000000
     11351      3757  TIP3      H1            -28.4295999803        9.7925459646      -10.8289965432  SOLV      3746            0.0000000000
     11352      3757  TIP3      H2            -28.8472276057       11.2353174146      -10.5978204670  SOLV      3746            0.0000000000
     11353      3758  TIP3      OH2           -38.0042991898        7.4736941049       -7.4390784507  SOLV      3747            0.0000000000
     11354      3758  TIP3      H1            -38.0342878986        7.8939988993       -8.3142392722  SOLV      3747            0.0000000000
     11355      3758  TIP3      H2            -38.8340927808        7.7837341946       -7.0618834845  SOLV      3747            0.0000000000
     11356      3759  TIP3      OH2           -33.0063790996        9.3543549430       -8.3020863119  SOLV      3748            0.0000000000
     11357      3759  TIP3      H1            -33.0917006144        8.9452903106       -9.1719302209  SOLV      3748            0.0000000000
     11358      3759  TIP3      H2            -33.1076724991        8.5695890011       -7.7111746974  SOLV      3748            0.0000000000
     11359      3760  TIP3      OH2           -32.6757107327        8.6151474694      -12.7044812883  SOLV      3749            0.0000000000
     11360      3760  TIP3      H1            -33.4952434963        9.1074567395      -12.4865794517  SOLV      3749            0.0000000000
     11361      3760  TIP3      H2            -32.8468828153        7.7560621362      -12.2609239431  SOLV      3749            0.0000000000
     11362      3761  TIP3      OH2           -37.8024668988        9.2232859260      -12.3626720092  SOLV      3750            0.0000000000
     11363      3761  TIP3      H1            -38.1463899128        8.6625549905      -11.6539429250  SOLV      3750            0.0000000000
     11364      3761  TIP3      H2            -37.9780911477       10.0986989216      -11.9616977199  SOLV      3750            0.0000000000
     11365      3762  TIP3      OH2           -32.9835641705       25.0600504863      -16.1972372765  SOLV      3751            0.0000000000
     11366      3762  TIP3      H1            -32.8368948213       24.0828482360      -16.1939626018  SOLV      3751            0.0000000000
     11367      3762  TIP3      H2            -33.9507819385       25.0646031428      -16.2920447622  SOLV      3751            0.0000000000
     11368      3763  TIP3      OH2           -30.0117896985       10.9827894516        0.9606589857  SOLV      3752            0.0000000000
     11369      3763  TIP3      H1            -29.8385754507       10.6627196039        1.8729750295  SOLV      3752            0.0000000000
     11370      3763  TIP3      H2            -29.1153215450       10.9299893977        0.5645356418  SOLV      3752            0.0000000000
     11371      3764  TIP3      OH2           -30.6840446329       26.4394596449       -4.0431261288  SOLV      3753            0.0000000000
     11372      3764  TIP3      H1            -31.4042499361       26.1251180859       -4.6239841290  SOLV      3753            0.0000000000
     11373      3764  TIP3      H2            -30.9045396644       27.3980918124       -4.0087438198  SOLV      3753            0.0000000000
     11374      3765  TIP3      OH2           -17.9430699724       20.2541759442      -16.4751851490  SOLV      3754            0.0000000000
     11375      3765  TIP3      H1            -18.3051784539       21.1301847781      -16.7218320245  SOLV      3754            0.0000000000
     11376      3765  TIP3      H2            -18.6752386254       19.6779643623      -16.7562419738  SOLV      3754            0.0000000000
     11377      3766  TIP3      OH2           -18.0011970298       20.2027825124      -12.5155625337  SOLV      3755            0.0000000000
     11378      3766  TIP3      H1            -17.6053990219       19.9591656252      -11.6566539478  SOLV      3755            0.0000000000
     11379      3766  TIP3      H2            -18.3077882486       19.3352248607      -12.8299784720  SOLV      3755            0.0000000000
     11380      3767  TIP3      OH2           -25.0283265272       19.1095707236       -8.9372751793  SOLV      3756            0.0000000000
     11381      3767  TIP3      H1            -24.7553893985       18.3895409408       -8.3366486559  SOLV      3756            0.0000000000
     11382      3767  TIP3      H2            -24.2423535339       19.6720970454       -8.9105414679  SOLV      3756            0.0000000000
     11383      3768  TIP3      OH2           -15.5191712428       23.2618367795      -15.7818033312  SOLV      3757            0.0000000000
     11384      3768  TIP3      H1            -15.7084078098       22.4946645798      -15.2229558696  SOLV      3757            0.0000000000
     11385      3768  TIP3      H2            -15.2072561970       23.9179444697      -15.1372254426  SOLV      3757            0.0000000000
     11386      3769  TIP3      OH2           -25.2717466360       23.2500153184      -11.7893258179  SOLV      3758            0.0000000000
     11387      3769  TIP3      H1            -25.3559895362       22.2721473664      -11.7689843680  SOLV      3758            0.0000000000
     11388      3769  TIP3      H2            -24.3051063600       23.3438859745      -11.7569228792  SOLV      3758            0.0000000000
     11389      3770  TIP3      OH2           -27.9676385075       15.3686268404      -13.9885540527  SOLV      3759            0.0000000000
     11390      3770  TIP3      H1            -28.4928588913       16.1711633861      -13.8158144637  SOLV      3759            0.0000000000
     11391      3770  TIP3      H2            -28.6755673514       14.7421532816      -14.1896496898  SOLV      3759            0.0000000000
     11392      3771  TIP3      OH2           -27.6410692239       18.1948564463      -12.0902127391  SOLV      3760            0.0000000000
     11393      3771  TIP3      H1            -27.1417650512       17.3962976644      -11.8047365739  SOLV      3760            0.0000000000
     11394      3771  TIP3      H2            -27.0352017035       18.5924442222      -12.7283271898  SOLV      3760            0.0000000000
     11395      3772  TIP3      OH2           -18.6257151291       27.9415952478      -15.2656122434  SOLV      3761            0.0000000000
     11396      3772  TIP3      H1            -18.4080602338       27.2296217190      -15.9057913957  SOLV      3761            0.0000000000
     11397      3772  TIP3      H2            -18.8652866845       27.4285133111      -14.4827005770  SOLV      3761            0.0000000000
     11398      3773  TIP3      OH2           -19.9932246020       22.4636807865      -12.1323558119  SOLV      3762            0.0000000000
     11399      3773  TIP3      H1            -19.5767038908       21.6598256345      -12.4920968272  SOLV      3762            0.0000000000
     11400      3773  TIP3      H2            -19.1753052621       22.9470242364      -11.8894176800  SOLV      3762            0.0000000000
     11401      3774  TIP3      OH2            -9.8298110508       15.6421395514      -12.1412480344  SOLV      3763            0.0000000000
     11402      3774  TIP3      H1             -9.5225662063       16.4769230675      -11.7349206782  SOLV      3763            0.0000000000
     11403      3774  TIP3      H2             -9.5948863446       15.7831961483      -13.0750256131  SOLV      3763            0.0000000000
     11404      3775  TIP3      OH2           -15.8275108055       17.4921331077      -11.8602280927  SOLV      3764            0.0000000000
     11405      3775  TIP3      H1            -15.3986691429       16.6379488323      -11.6595395731  SOLV      3764            0.0000000000
     11406      3775  TIP3      H2            -16.2305904495       17.2940609417      -12.7296139178  SOLV      3764            0.0000000000
     11407      3776  TIP3      OH2           -22.9718068650       14.3613347014      -12.2627347874  SOLV      3765            0.0000000000
     11408      3776  TIP3      H1            -22.0247966599       14.4034317139      -12.5792029864  SOLV      3765            0.0000000000
     11409      3776  TIP3      H2            -23.0862915440       13.4155976345      -12.4194885574  SOLV      3765            0.0000000000
     11410      3777  TIP3      OH2           -15.5377881663       14.9578971867      -15.9667917360  SOLV      3766            0.0000000000
     11411      3777  TIP3      H1            -14.8251683929       14.8270392449      -15.2988671297  SOLV      3766            0.0000000000
     11412      3777  TIP3      H2            -15.0051618365       15.2596103433      -16.7219097036  SOLV      3766            0.0000000000
     11413      3778  TIP3      OH2           -26.2706379739       16.0461679889      -11.1145017437  SOLV      3767            0.0000000000
     11414      3778  TIP3      H1            -25.3949137711       15.8610255784      -10.7151890337  SOLV      3767            0.0000000000
     11415      3778  TIP3      H2            -26.4503348865       15.2285760762      -11.5956829383  SOLV      3767            0.0000000000
     11416      3779  TIP3      OH2           -21.6829950987       18.0067760349      -13.1394433346  SOLV      3768            0.0000000000
     11417      3779  TIP3      H1            -20.7138745150       17.9989047725      -12.9684844802  SOLV      3768            0.0000000000
     11418      3779  TIP3      H2            -21.8144032589       17.0619443486      -13.2975926361  SOLV      3768            0.0000000000
     11419      3780  TIP3      OH2            -9.0966722644       17.7544159285      -10.4615807006  SOLV      3769            0.0000000000
     11420      3780  TIP3      H1             -9.9610771586       18.1790211827      -10.6477445586  SOLV      3769            0.0000000000
     11421      3780  TIP3      H2             -8.9650116680       18.0232630557       -9.5402119852  SOLV      3769            0.0000000000
     11422      3781  TIP3      OH2           -22.5204608819       13.9160586823       -7.8031087906  SOLV      3770            0.0000000000
     11423      3781  TIP3      H1            -23.1207364784       14.3041223415       -8.4655229565  SOLV      3770            0.0000000000
     11424      3781  TIP3      H2            -23.0354753765       14.0718397724       -6.9850169212  SOLV      3770            0.0000000000
     11425      3782  TIP3      OH2           -19.0815617644       22.4095716310      -17.7756024909  SOLV      3771            0.0000000000
     11426      3782  TIP3      H1            -19.5260510120       22.2649884662      -18.6230348976  SOLV      3771            0.0000000000
     11427      3782  TIP3      H2            -19.5464703106       23.2119531677      -17.4511547810  SOLV      3771            0.0000000000
     11428      3783  TIP3      OH2           -21.4490483041       21.6675458681       -9.9219417522  SOLV      3772            0.0000000000
     11429      3783  TIP3      H1            -22.0465320084       22.3499851825       -9.5426577661  SOLV      3772            0.0000000000
     11430      3783  TIP3      H2            -21.0315056778       22.1515945749      -10.6643004267  SOLV      3772            0.0000000000
     11431      3784  TIP3      OH2           -13.4891993642       15.0642026886      -14.2186225532  SOLV      3773            0.0000000000
     11432      3784  TIP3      H1            -13.5490447802       14.4701170122      -13.4602904784  SOLV      3773            0.0000000000
     11433      3784  TIP3      H2            -13.0033684570       15.8280612640      -13.8535149974  SOLV      3773            0.0000000000
     11434      3785  TIP3      OH2           -23.8994742002       15.1338143706       -9.9155070900  SOLV      3774            0.0000000000
     11435      3785  TIP3      H1            -23.2300944602       15.8098203422       -9.6635397974  SOLV      3774            0.0000000000
     11436      3785  TIP3      H2            -23.5349553934       14.8753786521      -10.7995247801  SOLV      3774            0.0000000000
     11437      3786  TIP3      OH2           -23.1711430876       23.6057439430       -8.9002581711  SOLV      3775            0.0000000000
     11438      3786  TIP3      H1            -23.4093923083       24.5018381190       -9.2204496802  SOLV      3775            0.0000000000
     11439      3786  TIP3      H2            -23.9622905893       23.4256082116       -8.3482889317  SOLV      3775            0.0000000000
     11440      3787  TIP3      OH2           -29.2616604298       20.5182435051      -16.5538228094  SOLV      3776            0.0000000000
     11441      3787  TIP3      H1            -29.6800087649       20.8248183057      -17.3764662275  SOLV      3776            0.0000000000
     11442      3787  TIP3      H2            -28.9204563909       21.3553488121      -16.1782492428  SOLV      3776            0.0000000000
     11443      3788  TIP3      OH2           -14.9299940539       25.6019467789      -14.0891734551  SOLV      3777            0.0000000000
     11444      3788  TIP3      H1            -15.7726627348       25.3831064599      -13.6266617536  SOLV      3777            0.0000000000
     11445      3788  TIP3      H2            -15.1842029350       26.4589037143      -14.4604995293  SOLV      3777            0.0000000000
     11446      3789  TIP3      OH2           -11.9238743318       14.6711047096      -10.4730656154  SOLV      3778            0.0000000000
     11447      3789  TIP3      H1            -12.8015431448       14.8997541703      -10.8288652774  SOLV      3778            0.0000000000
     11448      3789  TIP3      H2            -11.3214440841       14.9857960384      -11.1783559760  SOLV      3778            0.0000000000
     11449      3790  TIP3      OH2           -18.9844868725       10.8300706099      -10.3397610927  SOLV      3779            0.0000000000
     11450      3790  TIP3      H1            -19.3043524279        9.9221830262      -10.1807829997  SOLV      3779            0.0000000000
     11451      3790  TIP3      H2            -19.7554211234       11.3671975733      -10.0743798317  SOLV      3779            0.0000000000
     11452      3791  TIP3      OH2           -17.8874424179       26.1793606261      -17.2826960688  SOLV      3780            0.0000000000
     11453      3791  TIP3      H1            -17.4465761550       25.3107786001      -17.4338798618  SOLV      3780            0.0000000000
     11454      3791  TIP3      H2            -17.2529724231       26.7531875989      -17.7729196079  SOLV      3780            0.0000000000
     11455      3792  TIP3      OH2           -16.4721239720       24.0432628352      -18.2366150698  SOLV      3781            0.0000000000
     11456      3792  TIP3      H1            -16.8526174953       23.2365141971      -18.6096064533  SOLV      3781            0.0000000000
     11457      3792  TIP3      H2            -16.0479045748       23.6905894990      -17.4212293660  SOLV      3781            0.0000000000
     11458      3793  TIP3      OH2           -12.5753783864       24.7363475066      -10.6804662215  SOLV      3782            0.0000000000
     11459      3793  TIP3      H1            -12.7189561483       23.9458561785      -11.2474315262  SOLV      3782            0.0000000000
     11460      3793  TIP3      H2            -12.7496905413       25.4646245029      -11.3111837468  SOLV      3782            0.0000000000
     11461      3794  TIP3      OH2           -19.6632866741       18.7460134687      -18.0966180828  SOLV      3783            0.0000000000
     11462      3794  TIP3      H1            -20.4583240719       19.2664598301      -18.3233187424  SOLV      3783            0.0000000000
     11463      3794  TIP3      H2            -19.2040376495       18.6832316757      -18.9538569102  SOLV      3783            0.0000000000
     11464      3795  TIP3      OH2           -20.1311730290       16.6151604477      -21.0225529516  SOLV      3784            0.0000000000
     11465      3795  TIP3      H1            -19.4668262499       17.1015967925      -20.5029970035  SOLV      3784            0.0000000000
     11466      3795  TIP3      H2            -19.5527569017       15.9738792927      -21.4852205407  SOLV      3784            0.0000000000
     11467      3796  TIP3      OH2           -10.6521501528       21.1930528972      -12.2118181840  SOLV      3785            0.0000000000
     11468      3796  TIP3      H1            -11.5012942421       21.6829109275      -12.1806206058  SOLV      3785            0.0000000000
     11469      3796  TIP3      H2            -10.3588168153       21.3986723794      -13.1230874877  SOLV      3785            0.0000000000
     11470      3797  TIP3      OH2           -16.1657888447       19.5668010670      -18.4357725933  SOLV      3786            0.0000000000
     11471      3797  TIP3      H1            -16.7160465918       19.7810510190      -17.6459081553  SOLV      3786            0.0000000000
     11472      3797  TIP3      H2            -15.3316525339       19.2951466360      -17.9966684131  SOLV      3786            0.0000000000
     11473      3798  TIP3      OH2           -13.8655808263       19.9100853788       -9.2264456987  SOLV      3787            0.0000000000
     11474      3798  TIP3      H1            -13.9068601831       20.7357008840       -8.7101686476  SOLV      3787            0.0000000000
     11475      3798  TIP3      H2            -14.7327337362       19.9341217457       -9.6796670067  SOLV      3787            0.0000000000
     11476      3799  TIP3      OH2           -23.8113083290       19.4714727398      -14.1992903502  SOLV      3788            0.0000000000
     11477      3799  TIP3      H1            -24.2492566829       18.8823426704      -14.8477598968  SOLV      3788            0.0000000000
     11478      3799  TIP3      H2            -23.0472937517       18.9289703091      -13.9066854476  SOLV      3788            0.0000000000
     11479      3800  TIP3      OH2           -22.5290880496       23.6926253607      -12.7835436063  SOLV      3789            0.0000000000
     11480      3800  TIP3      H1            -22.7609847192       23.3143895155      -13.6453569617  SOLV      3789            0.0000000000
     11481      3800  TIP3      H2            -21.6580242952       23.2803990659      -12.6054366859  SOLV      3789            0.0000000000
     11482      3801  TIP3      OH2           -22.5320449322       19.2449558573      -10.6966174526  SOLV      3790            0.0000000000
     11483      3801  TIP3      H1            -22.1705672642       18.9862041005      -11.5660593998  SOLV      3790            0.0000000000
     11484      3801  TIP3      H2            -22.0838908683       20.0989863959      -10.5150454208  SOLV      3790            0.0000000000
     11485      3802  TIP3      OH2           -17.2902015586       25.5890334583      -12.8595368986  SOLV      3791            0.0000000000
     11486      3802  TIP3      H1            -17.3460847663       26.3568651925      -12.2653936799  SOLV      3791            0.0000000000
     11487      3802  TIP3      H2            -17.4525948827       24.8334477150      -12.2556628731  SOLV      3791            0.0000000000
     11488      3803  TIP3      OH2           -21.0917112501       24.7589456824       -7.4694690437  SOLV      3792            0.0000000000
     11489      3803  TIP3      H1            -21.6834117644       25.3653248839       -6.9711137792  SOLV      3792            0.0000000000
     11490      3803  TIP3      H2            -21.7579846238       24.2362916992       -7.9600259814  SOLV      3792            0.0000000000
     11491      3804  TIP3      OH2           -17.8329644844       18.1579991429      -20.1356545471  SOLV      3793            0.0000000000
     11492      3804  TIP3      H1            -17.2234223111       18.7491084754      -19.6398088596  SOLV      3793            0.0000000000
     11493      3804  TIP3      H2            -17.5544950730       18.3450953337      -21.0655903716  SOLV      3793            0.0000000000
     11494      3805  TIP3      OH2           -23.5740119616       20.3500968399       -6.3945792199  SOLV      3794            0.0000000000
     11495      3805  TIP3      H1            -23.5279558245       21.2365111434       -5.9829320107  SOLV      3794            0.0000000000
     11496      3805  TIP3      H2            -24.5120395103       20.1265638870       -6.2242745065  SOLV      3794            0.0000000000
     11497      3806  TIP3      OH2           -20.2707998370       24.8283884465      -17.3019859781  SOLV      3795            0.0000000000
     11498      3806  TIP3      H1            -19.4860531454       25.4111191917      -17.2705757480  SOLV      3795            0.0000000000
     11499      3806  TIP3      H2            -20.9459631775       25.3824646984      -17.7030682808  SOLV      3795            0.0000000000
     11500      3807  TIP3      OH2           -23.1692306150       26.3813919212       -6.5679520999  SOLV      3796            0.0000000000
     11501      3807  TIP3      H1            -23.5445190510       26.4264789712       -7.4659985161  SOLV      3796            0.0000000000
     11502      3807  TIP3      H2            -23.9722016976       26.2433783615       -6.0188375353  SOLV      3796            0.0000000000
     11503      3808  TIP3      OH2           -12.6378891774       10.4887948006      -19.6538324332  SOLV      3797            0.0000000000
     11504      3808  TIP3      H1            -13.4439532084       10.6875533984      -19.1279662676  SOLV      3797            0.0000000000
     11505      3808  TIP3      H2            -12.5069441852       11.3372912372      -20.1216618758  SOLV      3797            0.0000000000
     11506      3809  TIP3      OH2           -25.2640661780       17.9432662890      -16.1398499463  SOLV      3798            0.0000000000
     11507      3809  TIP3      H1            -25.8401702954       18.4592948219      -16.7430527112  SOLV      3798            0.0000000000
     11508      3809  TIP3      H2            -25.8117686442       17.1665932534      -15.9937836605  SOLV      3798            0.0000000000
     11509      3810  TIP3      OH2           -14.6275431696       24.1471577950      -24.1218002925  SOLV      3799            0.0000000000
     11510      3810  TIP3      H1            -14.5640113042       25.1052600887      -24.3247127336  SOLV      3799            0.0000000000
     11511      3810  TIP3      H2            -13.7024261666       23.8575513369      -24.2732820165  SOLV      3799            0.0000000000
     11512      3811  TIP3      OH2           -27.3968856615       21.7856696487       -7.1014265298  SOLV      3800            0.0000000000
     11513      3811  TIP3      H1            -28.0870336204       21.5772718707       -7.7632071205  SOLV      3800            0.0000000000
     11514      3811  TIP3      H2            -27.0238938791       20.9056697935       -6.8884885545  SOLV      3800            0.0000000000
     11515      3812  TIP3      OH2           -28.8596629880       23.7237138538      -10.8350141535  SOLV      3801            0.0000000000
     11516      3812  TIP3      H1            -27.8936493622       23.6736852436      -10.8517651825  SOLV      3801            0.0000000000
     11517      3812  TIP3      H2            -28.9974615820       24.4867474650      -10.2527265643  SOLV      3801            0.0000000000
     11518      3813  TIP3      OH2           -10.2465731516       28.2569334057      -10.2435723782  SOLV      3802            0.0000000000
     11519      3813  TIP3      H1            -10.2223259353       27.2959541092      -10.0566432630  SOLV      3802            0.0000000000
     11520      3813  TIP3      H2            -11.0742217088       28.5032670105       -9.7684753477  SOLV      3802            0.0000000000
     11521      3814  TIP3      OH2           -19.2057976888       26.0911669255       -8.9057988512  SOLV      3803            0.0000000000
     11522      3814  TIP3      H1            -19.2161471981       27.0017398762       -8.5378832199  SOLV      3803            0.0000000000
     11523      3814  TIP3      H2            -19.8912639227       25.6629102557       -8.3431630571  SOLV      3803            0.0000000000
     11524      3815  TIP3      OH2           -22.6673928715       27.3691815231      -19.3958361184  SOLV      3804            0.0000000000
     11525      3815  TIP3      H1            -22.4952040362       27.0595361337      -20.3023787476  SOLV      3804            0.0000000000
     11526      3815  TIP3      H2            -21.8617650612       27.8902358767      -19.2365548449  SOLV      3804            0.0000000000
     11527      3816  TIP3      OH2           -27.1961228669       25.9409161708      -15.4722558167  SOLV      3805            0.0000000000
     11528      3816  TIP3      H1            -26.7210391790       25.8883702849      -14.6127059904  SOLV      3805            0.0000000000
     11529      3816  TIP3      H2            -27.6395202250       25.0751832047      -15.4852971741  SOLV      3805            0.0000000000
     11530      3817  TIP3      OH2           -19.5311956033       26.4596918593      -23.0666991805  SOLV      3806            0.0000000000
     11531      3817  TIP3      H1            -18.9842681825       25.7437877268      -23.4631346561  SOLV      3806            0.0000000000
     11532      3817  TIP3      H2            -19.1822983244       26.4810559351      -22.1514346760  SOLV      3806            0.0000000000
     11533      3818  TIP3      OH2           -18.8644084231       26.8064675095      -20.3374145845  SOLV      3807            0.0000000000
     11534      3818  TIP3      H1            -19.3322358786       27.3859588667      -19.7025612050  SOLV      3807            0.0000000000
     11535      3818  TIP3      H2            -18.4396901028       26.1669703022      -19.7451210813  SOLV      3807            0.0000000000
     11536      3819  TIP3      OH2           -11.3452788243       19.5122531127       -7.4715122472  SOLV      3808            0.0000000000
     11537      3819  TIP3      H1            -12.1900153617       19.5809939340       -7.9415823903  SOLV      3808            0.0000000000
     11538      3819  TIP3      H2            -11.1593322831       18.5549448252       -7.5557374184  SOLV      3808            0.0000000000
     11539      3820  TIP3      OH2           -25.3688791190       23.6243807500       -7.2604827665  SOLV      3809            0.0000000000
     11540      3820  TIP3      H1            -24.8675665772       23.4496655672       -6.4385672502  SOLV      3809            0.0000000000
     11541      3820  TIP3      H2            -26.1055424265       22.9813972261       -7.1859939139  SOLV      3809            0.0000000000
     11542      3821  TIP3      OH2           -21.4440878196       11.7943079727       -9.3259592280  SOLV      3810            0.0000000000
     11543      3821  TIP3      H1            -22.3454660163       11.5118019601       -9.5849685319  SOLV      3810            0.0000000000
     11544      3821  TIP3      H2            -21.6556293750       12.6270512246       -8.8642124821  SOLV      3810            0.0000000000
     11545      3822  TIP3      OH2           -16.0036544699       13.0241098459       -7.4047496892  SOLV      3811            0.0000000000
     11546      3822  TIP3      H1            -15.3157013871       12.7001117629       -6.7888786228  SOLV      3811            0.0000000000
     11547      3822  TIP3      H2            -16.8356560490       12.7887315518       -6.9456984572  SOLV      3811            0.0000000000
     11548      3823  TIP3      OH2           -13.6401826798       17.2980637449       -8.2078825719  SOLV      3812            0.0000000000
     11549      3823  TIP3      H1            -14.1779914925       17.2638600709       -7.3839128469  SOLV      3812            0.0000000000
     11550      3823  TIP3      H2            -13.9019630392       18.1524303619       -8.5982058138  SOLV      3812            0.0000000000
     11551      3824  TIP3      OH2           -17.0419175363       18.5577862193      -22.6882049363  SOLV      3813            0.0000000000
     11552      3824  TIP3      H1            -17.3926217227       18.3135105131      -23.5649485493  SOLV      3813            0.0000000000
     11553      3824  TIP3      H2            -16.1821853441       18.9518826603      -22.9352216011  SOLV      3813            0.0000000000
     11554      3825  TIP3      OH2           -19.9172307210       12.3282200873      -19.6457761460  SOLV      3814            0.0000000000
     11555      3825  TIP3      H1            -20.2630140030       12.3208320466      -18.7295603886  SOLV      3814            0.0000000000
     11556      3825  TIP3      H2            -20.2958513813       11.4862047434      -19.9701134661  SOLV      3814            0.0000000000
     11557      3826  TIP3      OH2           -22.0609806569       17.0480389125       -9.1647790503  SOLV      3815            0.0000000000
     11558      3826  TIP3      H1            -22.5649687625       17.2555888736       -8.3513176444  SOLV      3815            0.0000000000
     11559      3826  TIP3      H2            -22.2320821221       17.8500633325       -9.7059029907  SOLV      3815            0.0000000000
     11560      3827  TIP3      OH2           -18.2290953217       16.8246926839      -16.6992346077  SOLV      3816            0.0000000000
     11561      3827  TIP3      H1            -18.7889626331       17.4539714096      -17.1981591690  SOLV      3816            0.0000000000
     11562      3827  TIP3      H2            -17.7560297223       16.3575515614      -17.4163011483  SOLV      3816            0.0000000000
     11563      3828  TIP3      OH2           -16.5460119633       19.4599477821       -5.9135952831  SOLV      3817            0.0000000000
     11564      3828  TIP3      H1            -16.7716212144       18.7317425021       -5.2931834577  SOLV      3817            0.0000000000
     11565      3828  TIP3      H2            -15.6070123477       19.5954717517       -5.6867772542  SOLV      3817            0.0000000000
     11566      3829  TIP3      OH2           -16.6698484586       16.9984182437      -14.4405195820  SOLV      3818            0.0000000000
     11567      3829  TIP3      H1            -17.3446539229       17.2011450415      -15.1235558927  SOLV      3818            0.0000000000
     11568      3829  TIP3      H2            -16.3235410044       16.1743711813      -14.8439130963  SOLV      3818            0.0000000000
     11569      3830  TIP3      OH2           -23.8717153137       17.2791164115       -7.0942026806  SOLV      3819            0.0000000000
     11570      3830  TIP3      H1            -23.5307346465       17.8882514989       -6.4233586748  SOLV      3819            0.0000000000
     11571      3830  TIP3      H2            -23.9822335038       16.4516331811       -6.5844210543  SOLV      3819            0.0000000000
     11572      3831  TIP3      OH2           -23.3924015105       12.0202962307      -20.0568236229  SOLV      3820            0.0000000000
     11573      3831  TIP3      H1            -23.5237531097       11.9201894775      -19.0990867088  SOLV      3820            0.0000000000
     11574      3831  TIP3      H2            -24.1586808918       12.5752181021      -20.2923015366  SOLV      3820            0.0000000000
     11575      3832  TIP3      OH2           -27.9446737649       12.6002581692      -11.3442611064  SOLV      3821            0.0000000000
     11576      3832  TIP3      H1            -27.1624248923       12.7703936519      -10.7749793411  SOLV      3821            0.0000000000
     11577      3832  TIP3      H2            -27.5953142638       12.0887749637      -12.0886861407  SOLV      3821            0.0000000000
     11578      3833  TIP3      OH2           -27.8150916886       12.6972321679      -15.8973144727  SOLV      3822            0.0000000000
     11579      3833  TIP3      H1            -27.7346891406       12.8652546323      -16.8687851668  SOLV      3822            0.0000000000
     11580      3833  TIP3      H2            -28.6726790187       13.1658737496      -15.7676906550  SOLV      3822            0.0000000000
     11581      3834  TIP3      OH2           -16.6113442747       19.4422898263      -10.1935672009  SOLV      3823            0.0000000000
     11582      3834  TIP3      H1            -16.2803258574       18.7325393027      -10.7963455731  SOLV      3823            0.0000000000
     11583      3834  TIP3      H2            -16.9254425240       18.8879387335       -9.4458387781  SOLV      3823            0.0000000000
     11584      3835  TIP3      OH2           -14.8933980218       14.8977810961      -11.3567102403  SOLV      3824            0.0000000000
     11585      3835  TIP3      H1            -15.3358699271       14.9992606721      -10.4857382034  SOLV      3824            0.0000000000
     11586      3835  TIP3      H2            -15.3594085583       14.1341720138      -11.7301207877  SOLV      3824            0.0000000000
     11587      3836  TIP3      OH2           -24.5369026298       14.7171950837      -18.5593005566  SOLV      3825            0.0000000000
     11588      3836  TIP3      H1            -25.1800662213       14.3880618363      -19.2128322544  SOLV      3825            0.0000000000
     11589      3836  TIP3      H2            -23.9250077904       15.2051134976      -19.1432399877  SOLV      3825            0.0000000000
     11590      3837  TIP3      OH2           -13.3658134944       31.7512162770       -9.2439750756  SOLV      3826            0.0000000000
     11591      3837  TIP3      H1            -13.4947532066       32.0724305291      -10.1528447414  SOLV      3826            0.0000000000
     11592      3837  TIP3      H2            -12.5251708276       32.2065691781       -9.0300357838  SOLV      3826            0.0000000000
     11593      3838  TIP3      OH2           -23.7289566223       22.8464561394       -5.0229194791  SOLV      3827            0.0000000000
     11594      3838  TIP3      H1            -22.9193050046       23.1091938047       -4.5378441416  SOLV      3827            0.0000000000
     11595      3838  TIP3      H2            -24.3644711405       22.8076080385       -4.2817125468  SOLV      3827            0.0000000000
     11596      3839  TIP3      OH2           -19.1388468414       17.3674216241      -12.3884138884  SOLV      3828            0.0000000000
     11597      3839  TIP3      H1            -18.7088881467       16.7052074806      -12.9500202893  SOLV      3828            0.0000000000
     11598      3839  TIP3      H2            -19.1776530067       16.8903267317      -11.5353467106  SOLV      3828            0.0000000000
     11599      3840  TIP3      OH2           -24.0814729438       11.9641896602      -14.1181683664  SOLV      3829            0.0000000000
     11600      3840  TIP3      H1            -24.3083236683       11.2784017560      -13.4533472764  SOLV      3829            0.0000000000
     11601      3840  TIP3      H2            -23.0841485586       11.7643198848      -14.2348602473  SOLV      3829            0.0000000000
     11602      3841  TIP3      OH2           -19.3668485347       16.4477590138       -9.5593160101  SOLV      3830            0.0000000000
     11603      3841  TIP3      H1            -20.2706058994       16.7771149624       -9.3857551158  SOLV      3830            0.0000000000
     11604      3841  TIP3      H2            -18.7975297717       17.0626623161       -9.0582701228  SOLV      3830            0.0000000000
     11605      3842  TIP3      OH2           -22.0126516331       20.2428177640      -18.6517677166  SOLV      3831            0.0000000000
     11606      3842  TIP3      H1            -22.7192942360       19.5701990532      -18.7525004945  SOLV      3831            0.0000000000
     11607      3842  TIP3      H2            -22.2044910039       20.5735057354      -17.7389554588  SOLV      3831            0.0000000000
     11608      3843  TIP3      OH2           -13.0169620276       22.6142387469      -12.3632711629  SOLV      3832            0.0000000000
     11609      3843  TIP3      H1            -12.7818156408       23.1059841548      -13.1771394053  SOLV      3832            0.0000000000
     11610      3843  TIP3      H2            -13.8382135369       22.1441038167      -12.6309448078  SOLV      3832            0.0000000000
     11611      3844  TIP3      OH2           -17.5191752546       13.4920054886      -20.2344704498  SOLV      3833            0.0000000000
     11612      3844  TIP3      H1            -18.4111770755       13.1843693088      -19.9452975842  SOLV      3833            0.0000000000
     11613      3844  TIP3      H2            -17.3975589732       14.3275301849      -19.7407063161  SOLV      3833            0.0000000000
     11614      3845  TIP3      OH2           -17.9054480340       23.5024771512       -8.6637396694  SOLV      3834            0.0000000000
     11615      3845  TIP3      H1            -17.6600149357       23.2191788051       -7.7735351102  SOLV      3834            0.0000000000
     11616      3845  TIP3      H2            -18.4078226100       24.3184813856       -8.5042942386  SOLV      3834            0.0000000000
     11617      3846  TIP3      OH2           -16.7426358932       15.8275827782      -18.9080056896  SOLV      3835            0.0000000000
     11618      3846  TIP3      H1            -15.7823786680       15.8668245524      -18.7255570205  SOLV      3835            0.0000000000
     11619      3846  TIP3      H2            -16.9007151570       16.6567929493      -19.3954026405  SOLV      3835            0.0000000000
     11620      3847  TIP3      OH2           -25.0350544703       20.4823914724      -11.8884973081  SOLV      3836            0.0000000000
     11621      3847  TIP3      H1            -24.6327380974       20.1570780386      -12.7186848279  SOLV      3836            0.0000000000
     11622      3847  TIP3      H2            -24.5944094027       19.9269255776      -11.2257710359  SOLV      3836            0.0000000000
     11623      3848  TIP3      OH2           -20.5399662439       21.7443350157      -20.3845305019  SOLV      3837            0.0000000000
     11624      3848  TIP3      H1            -21.0248274593       22.6019069619      -20.3413398662  SOLV      3837            0.0000000000
     11625      3848  TIP3      H2            -21.0849466078       21.1902047992      -19.7832251392  SOLV      3837            0.0000000000
     11626      3849  TIP3      OH2           -26.2085711830       19.6561717394       -5.7163237549  SOLV      3838            0.0000000000
     11627      3849  TIP3      H1            -26.0610415248       19.4902903377       -4.7646405136  SOLV      3838            0.0000000000
     11628      3849  TIP3      H2            -26.9059108730       19.0077199331       -5.9183227368  SOLV      3838            0.0000000000
     11629      3850  TIP3      OH2           -18.9321546881       20.8419665611       -5.5464367731  SOLV      3839            0.0000000000
     11630      3850  TIP3      H1            -19.5558936914       20.2269242294       -5.9624420401  SOLV      3839            0.0000000000
     11631      3850  TIP3      H2            -18.0729361410       20.4526998538       -5.8190106469  SOLV      3839            0.0000000000
     11632      3851  TIP3      OH2           -16.4447945218       26.2196967377       -9.8054868398  SOLV      3840            0.0000000000
     11633      3851  TIP3      H1            -17.3754878576       26.0513895209       -9.5707194635  SOLV      3840            0.0000000000
     11634      3851  TIP3      H2            -16.1165263775       26.6032591108       -8.9608823906  SOLV      3840            0.0000000000
     11635      3852  TIP3      OH2           -12.3252602526       16.7766547253      -20.6058536474  SOLV      3841            0.0000000000
     11636      3852  TIP3      H1            -12.9447573279       16.3468674997      -21.2420555765  SOLV      3841            0.0000000000
     11637      3852  TIP3      H2            -12.3507369099       17.6798876276      -20.9873433975  SOLV      3841            0.0000000000
     11638      3853  TIP3      OH2           -10.0789425576       25.4266395954       -9.8318496911  SOLV      3842            0.0000000000
     11639      3853  TIP3      H1            -11.0519136309       25.2933308871       -9.8727372520  SOLV      3842            0.0000000000
     11640      3853  TIP3      H2             -9.8247317630       25.0758971018      -10.7154127951  SOLV      3842            0.0000000000
     11641      3854  TIP3      OH2           -15.1958349128       24.9171000666      -21.4621364882  SOLV      3843            0.0000000000
     11642      3854  TIP3      H1            -15.5448323288       24.2257880167      -20.8808070856  SOLV      3843            0.0000000000
     11643      3854  TIP3      H2            -15.1168286767       24.4561408105      -22.3183711986  SOLV      3843            0.0000000000
     11644      3855  TIP3      OH2           -15.3236112570       21.2402168805      -13.2257974503  SOLV      3844            0.0000000000
     11645      3855  TIP3      H1            -16.2514593609       20.9849372952      -13.0665375927  SOLV      3844            0.0000000000
     11646      3855  TIP3      H2            -14.9853816788       20.4165144927      -13.6369008009  SOLV      3844            0.0000000000
     11647      3856  TIP3      OH2           -24.0093518679       23.5327928555      -15.6041406018  SOLV      3845            0.0000000000
     11648      3856  TIP3      H1            -24.1099183030       24.3312708866      -16.1590052991  SOLV      3845            0.0000000000
     11649      3856  TIP3      H2            -24.9285811687       23.3055394448      -15.4260905990  SOLV      3845            0.0000000000
     11650      3857  TIP3      OH2           -28.3366941872       16.5354047763      -18.5214543012  SOLV      3846            0.0000000000
     11651      3857  TIP3      H1            -27.9224675717       17.3939386368      -18.2955560070  SOLV      3846            0.0000000000
     11652      3857  TIP3      H2            -29.1513574839       16.5699187084      -17.9688380783  SOLV      3846            0.0000000000
     11653      3858  TIP3      OH2           -22.7442988338       21.1367783784      -16.2253180577  SOLV      3847            0.0000000000
     11654      3858  TIP3      H1            -23.0662043040       22.0331615240      -16.0034549861  SOLV      3847            0.0000000000
     11655      3858  TIP3      H2            -23.0436969670       20.6219456365      -15.4536287598  SOLV      3847            0.0000000000
     11656      3859  TIP3      OH2           -21.3099067133       26.9116742269      -10.9015413285  SOLV      3848            0.0000000000
     11657      3859  TIP3      H1            -20.8629041239       27.6113245777      -11.4197732673  SOLV      3848            0.0000000000
     11658      3859  TIP3      H2            -20.5638101608       26.5385256959      -10.4007688820  SOLV      3848            0.0000000000
     11659      3860  TIP3      OH2           -24.9156536759       25.8879890899      -17.0573896111  SOLV      3849            0.0000000000
     11660      3860  TIP3      H1            -25.7716618609       25.9376895453      -16.5864436015  SOLV      3849            0.0000000000
     11661      3860  TIP3      H2            -24.6968320015       26.8378448131      -17.1052152141  SOLV      3849            0.0000000000
     11662      3861  TIP3      OH2           -17.4767367464       23.2833298458      -11.3271353936  SOLV      3850            0.0000000000
     11663      3861  TIP3      H1            -17.6034866303       23.2940809249      -10.3492688345  SOLV      3850            0.0000000000
     11664      3861  TIP3      H2            -16.7418868636       22.6602714542      -11.4129750628  SOLV      3850            0.0000000000
     11665      3862  TIP3      OH2           -17.6691028714       22.2608478060      -22.4839178359  SOLV      3851            0.0000000000
     11666      3862  TIP3      H1            -17.1352416933       21.9900927602      -21.7003665875  SOLV      3851            0.0000000000
     11667      3862  TIP3      H2            -18.5445111249       21.9375440468      -22.2221581044  SOLV      3851            0.0000000000
     11668      3863  TIP3      OH2           -14.9683624396       28.5262605788      -10.8442190659  SOLV      3852            0.0000000000
     11669      3863  TIP3      H1            -15.7341517152       27.9160911860      -10.7943628860  SOLV      3852            0.0000000000
     11670      3863  TIP3      H2            -15.2688404207       29.1815382360      -11.5027988816  SOLV      3852            0.0000000000
     11671      3864  TIP3      OH2           -14.3598731423       26.8910423837      -24.3091656634  SOLV      3853            0.0000000000
     11672      3864  TIP3      H1            -13.8787990067       27.6471329851      -24.6876489877  SOLV      3853            0.0000000000
     11673      3864  TIP3      H2            -15.1691618463       27.3503025512      -24.0096651580  SOLV      3853            0.0000000000
     11674      3865  TIP3      OH2           -24.1754625060       14.7299980256       -5.6832688423  SOLV      3854            0.0000000000
     11675      3865  TIP3      H1            -25.1469489548       14.7536746874       -5.5737843058  SOLV      3854            0.0000000000
     11676      3865  TIP3      H2            -23.9094822133       14.1631688844       -4.9412851106  SOLV      3854            0.0000000000
     11677      3866  TIP3      OH2           -16.0683645771       21.5828426977      -20.3460588763  SOLV      3855            0.0000000000
     11678      3866  TIP3      H1            -16.1985617163       20.9198860760      -19.6370483445  SOLV      3855            0.0000000000
     11679      3866  TIP3      H2            -15.0973391615       21.5061756398      -20.4652398915  SOLV      3855            0.0000000000
     11680      3867  TIP3      OH2           -26.9520170031       25.4879824845       -9.3421543270  SOLV      3856            0.0000000000
     11681      3867  TIP3      H1            -26.3845938622       24.8448344234       -8.8825833273  SOLV      3856            0.0000000000
     11682      3867  TIP3      H2            -26.7286384092       26.3106689939       -8.8784931739  SOLV      3856            0.0000000000
     11683      3868  TIP3      OH2           -24.1246876216       22.0083900655      -22.4968581570  SOLV      3857            0.0000000000
     11684      3868  TIP3      H1            -23.9227320336       21.0849105102      -22.7333733850  SOLV      3857            0.0000000000
     11685      3868  TIP3      H2            -24.2973469097       21.9240178528      -21.5360152696  SOLV      3857            0.0000000000
     11686      3869  TIP3      OH2           -24.6125438552       22.0496668527      -19.7895977029  SOLV      3858            0.0000000000
     11687      3869  TIP3      H1            -23.8632227045       21.7959521142      -19.2332850739  SOLV      3858            0.0000000000
     11688      3869  TIP3      H2            -24.6101297005       23.0301364886      -19.6834697899  SOLV      3858            0.0000000000
     11689      3870  TIP3      OH2           -27.2658049138       19.0240760736      -17.7308808101  SOLV      3859            0.0000000000
     11690      3870  TIP3      H1            -27.9430369749       19.4586638925      -17.1700156320  SOLV      3859            0.0000000000
     11691      3870  TIP3      H2            -27.1528603350       19.7053676610      -18.4222262217  SOLV      3859            0.0000000000
     11692      3871  TIP3      OH2           -15.7669149564       15.4091573857       -8.7601532916  SOLV      3860            0.0000000000
     11693      3871  TIP3      H1            -14.9130633242       15.7292774266       -8.4276657220  SOLV      3860            0.0000000000
     11694      3871  TIP3      H2            -15.8959716303       14.5837248029       -8.2416533846  SOLV      3860            0.0000000000
     11695      3872  TIP3      OH2           -16.7128676090       12.7130538725      -17.2893986046  SOLV      3861            0.0000000000
     11696      3872  TIP3      H1            -17.0066983820       13.1100186405      -18.1174281955  SOLV      3861            0.0000000000
     11697      3872  TIP3      H2            -16.5918226259       13.4923995439      -16.7128714397  SOLV      3861            0.0000000000
     11698      3873  TIP3      OH2           -21.9167813780       24.0614806659      -20.2497324474  SOLV      3862            0.0000000000
     11699      3873  TIP3      H1            -22.8004435908       24.2870344434      -19.8947419415  SOLV      3862            0.0000000000
     11700      3873  TIP3      H2            -21.8172032849       24.7467922294      -20.9274978390  SOLV      3862            0.0000000000
     11701      3874  TIP3      OH2           -19.9117905882       14.6570528255      -16.3554034782  SOLV      3863            0.0000000000
     11702      3874  TIP3      H1            -19.3565459355       15.4528940844      -16.2700316623  SOLV      3863            0.0000000000
     11703      3874  TIP3      H2            -20.0300201739       14.4075932586      -15.4051833622  SOLV      3863            0.0000000000
     11704      3875  TIP3      OH2           -17.3449730800       17.8487227443       -8.1196612502  SOLV      3864            0.0000000000
     11705      3875  TIP3      H1            -17.0573287118       18.3059903403       -7.3040178140  SOLV      3864            0.0000000000
     11706      3875  TIP3      H2            -16.8514068820       17.0066332080       -8.0785857710  SOLV      3864            0.0000000000
     11707      3876  TIP3      OH2           -24.4782125658       24.7230170502      -19.5364420520  SOLV      3865            0.0000000000
     11708      3876  TIP3      H1            -24.7949660285       25.3818319596      -20.1961532301  SOLV      3865            0.0000000000
     11709      3876  TIP3      H2            -24.6234571631       25.2112684152      -18.6979161822  SOLV      3865            0.0000000000
     11710      3877  TIP3      OH2           -23.5856245838       12.1004460510      -17.2767854338  SOLV      3866            0.0000000000
     11711      3877  TIP3      H1            -23.3046072002       12.9951179834      -17.5331778776  SOLV      3866            0.0000000000
     11712      3877  TIP3      H2            -22.6964122593       11.7144697761      -17.0804429876  SOLV      3866            0.0000000000
     11713      3878  TIP3      OH2           -10.9827687784       16.8462162560       -8.2566777245  SOLV      3867            0.0000000000
     11714      3878  TIP3      H1            -11.9628986405       16.8630353030       -8.1693646377  SOLV      3867            0.0000000000
     11715      3878  TIP3      H2            -10.9048536754       16.3116188834       -9.0599778109  SOLV      3867            0.0000000000
     11716      3879  TIP3      OH2           -14.4693191504       18.8123226567      -14.3891083699  SOLV      3868            0.0000000000
     11717      3879  TIP3      H1            -15.2359591957       18.2123619584      -14.2950733087  SOLV      3868            0.0000000000
     11718      3879  TIP3      H2            -13.7721568403       18.3195354258      -13.9036596830  SOLV      3868            0.0000000000
     11719      3880  TIP3      OH2           -27.3329136307       21.0409370486      -19.7210406242  SOLV      3869            0.0000000000
     11720      3880  TIP3      H1            -26.6522495504       21.7317370565      -19.6223801024  SOLV      3869            0.0000000000
     11721      3880  TIP3      H2            -26.8504443216       20.4458730890      -20.3382744634  SOLV      3869            0.0000000000
     11722      3881  TIP3      OH2           -28.0297481218       13.8028053229      -18.3445741032  SOLV      3870            0.0000000000
     11723      3881  TIP3      H1            -27.9674398122       14.7797551327      -18.3335167292  SOLV      3870            0.0000000000
     11724      3881  TIP3      H2            -28.7342176536       13.6640845765      -18.9935459535  SOLV      3870            0.0000000000
     11725      3882  TIP3      OH2           -14.8177563539       28.3967893138      -14.6489242849  SOLV      3871            0.0000000000
     11726      3882  TIP3      H1            -15.2214925800       28.4188661786      -15.5308579504  SOLV      3871            0.0000000000
     11727      3882  TIP3      H2            -13.9064857915       28.1255602627      -14.8416468638  SOLV      3871            0.0000000000
     11728      3883  TIP3      OH2           -24.0819228664       11.0105654443       -9.6483269508  SOLV      3872            0.0000000000
     11729      3883  TIP3      H1            -24.3476227830       10.6316004143      -10.5110070453  SOLV      3872            0.0000000000
     11730      3883  TIP3      H2            -24.1553534136       10.2369086492       -9.0513619740  SOLV      3872            0.0000000000
     11731      3884  TIP3      OH2           -28.6096431747       23.2253240261      -15.8567652705  SOLV      3873            0.0000000000
     11732      3884  TIP3      H1            -29.2360358314       23.4969872133      -15.1726563850  SOLV      3873            0.0000000000
     11733      3884  TIP3      H2            -29.0176884903       23.6255278757      -16.6633133556  SOLV      3873            0.0000000000
     11734      3885  TIP3      OH2           -27.0615868259       28.5360591888       -4.8688263748  SOLV      3874            0.0000000000
     11735      3885  TIP3      H1            -26.1953852741       28.5218406181       -4.4089974377  SOLV      3874            0.0000000000
     11736      3885  TIP3      H2            -27.2607940064       27.5851704394       -4.9295322937  SOLV      3874            0.0000000000
     11737      3886  TIP3      OH2           -22.3505120574       28.4150736547       -4.7490856093  SOLV      3875            0.0000000000
     11738      3886  TIP3      H1            -21.5608894195       28.1771325476       -4.2337693189  SOLV      3875            0.0000000000
     11739      3886  TIP3      H2            -22.3939323980       27.6923146391       -5.4046249125  SOLV      3875            0.0000000000
     11740      3887  TIP3      OH2           -22.4281484653       24.0283730911      -23.3780026335  SOLV      3876            0.0000000000
     11741      3887  TIP3      H1            -23.0231497484       23.3196244172      -23.0434060079  SOLV      3876            0.0000000000
     11742      3887  TIP3      H2            -21.7120556757       23.4934499668      -23.7608663433  SOLV      3876            0.0000000000
     11743      3888  TIP3      OH2           -15.7771998952       27.3030548759       -7.3941580483  SOLV      3877            0.0000000000
     11744      3888  TIP3      H1            -15.9080464225       26.6486303313       -6.6682854085  SOLV      3877            0.0000000000
     11745      3888  TIP3      H2            -15.0826027220       27.8751161803       -7.0194895318  SOLV      3877            0.0000000000
     11746      3889  TIP3      OH2           -18.0745527122       24.4086409401      -24.2201441590  SOLV      3878            0.0000000000
     11747      3889  TIP3      H1            -17.7015365335       23.7216461991      -23.6309016161  SOLV      3878            0.0000000000
     11748      3889  TIP3      H2            -17.5103963933       24.3439109873      -25.0158456565  SOLV      3878            0.0000000000
     11749      3890  TIP3      OH2           -25.7558284491       22.7274475282       -3.1048497314  SOLV      3879            0.0000000000
     11750      3890  TIP3      H1            -25.6014582994       21.7673226631       -3.0225394983  SOLV      3879            0.0000000000
     11751      3890  TIP3      H2            -26.6180063190       22.7499876158       -3.5741421523  SOLV      3879            0.0000000000
     11752      3891  TIP3      OH2           -25.8806972239       19.1892324717      -21.0485990919  SOLV      3880            0.0000000000
     11753      3891  TIP3      H1            -25.2835804061       18.9042159458      -20.3299095565  SOLV      3880            0.0000000000
     11754      3891  TIP3      H2            -25.2473228107       19.2420748917      -21.7980396770  SOLV      3880            0.0000000000
     11755      3892  TIP3      OH2           -19.6932345981       23.5823753501       -5.3362994035  SOLV      3881            0.0000000000
     11756      3892  TIP3      H1            -20.0824182081       23.8171866378       -6.2019346202  SOLV      3881            0.0000000000
     11757      3892  TIP3      H2            -19.3859753759       22.6615672841       -5.4701149665  SOLV      3881            0.0000000000
     11758      3893  TIP3      OH2           -20.7927588657       21.2069217828      -23.0661411908  SOLV      3882            0.0000000000
     11759      3893  TIP3      H1            -20.7819648824       21.3189697718      -22.0934445381  SOLV      3882            0.0000000000
     11760      3893  TIP3      H2            -20.7814873589       20.2265554984      -23.1361718493  SOLV      3882            0.0000000000
     11761      3894  TIP3      OH2           -14.7520482618       23.6915187390       -9.2722566644  SOLV      3883            0.0000000000
     11762      3894  TIP3      H1            -14.0048780513       24.1488812146       -9.7025849981  SOLV      3883            0.0000000000
     11763      3894  TIP3      H2            -15.4855807302       24.3017753224       -9.4484647957  SOLV      3883            0.0000000000
     11764      3895  TIP3      OH2           -24.5324132225       20.1089933670       -3.2613696797  SOLV      3884            0.0000000000
     11765      3895  TIP3      H1            -23.7551549727       19.6196615579       -3.5561641796  SOLV      3884            0.0000000000
     11766      3895  TIP3      H2            -24.2335815139       20.4369653438       -2.3859528601  SOLV      3884            0.0000000000
     11767      3896  TIP3      OH2           -23.9475336915       18.2616386344      -18.9667890613  SOLV      3885            0.0000000000
     11768      3896  TIP3      H1            -24.1653439305       17.8288630999      -18.1267482023  SOLV      3885            0.0000000000
     11769      3896  TIP3      H2            -23.5406885553       17.5209084364      -19.4684323822  SOLV      3885            0.0000000000
     11770      3897  TIP3      OH2           -21.2328311383       18.8909700374       -6.6501557370  SOLV      3886            0.0000000000
     11771      3897  TIP3      H1            -22.0049855705       19.4959045773       -6.6667085681  SOLV      3886            0.0000000000
     11772      3897  TIP3      H2            -20.6925292166       19.2447236261       -7.3962030675  SOLV      3886            0.0000000000
     11773      3898  TIP3      OH2           -22.9236001027       16.1849064228      -20.4581299557  SOLV      3887            0.0000000000
     11774      3898  TIP3      H1            -23.1566666935       16.2553989769      -21.4050637968  SOLV      3887            0.0000000000
     11775      3898  TIP3      H2            -21.9457269927       16.1708633258      -20.5171189544  SOLV      3887            0.0000000000
     11776      3899  TIP3      OH2           -16.0188794864       22.9426890668       -5.3568108886  SOLV      3888            0.0000000000
     11777      3899  TIP3      H1            -15.2413826674       22.5807719450       -5.7998478253  SOLV      3888            0.0000000000
     11778      3899  TIP3      H2            -16.1351543881       22.3163203387       -4.6189195824  SOLV      3888            0.0000000000
     11779      3900  TIP3      OH2           -14.7123465457       19.4892558779      -23.8603932423  SOLV      3889            0.0000000000
     11780      3900  TIP3      H1            -14.8891918212       19.0498575111      -24.7173862409  SOLV      3889            0.0000000000
     11781      3900  TIP3      H2            -15.0642006749       20.3851304934      -24.0722969337  SOLV      3889            0.0000000000
     11782      3901  TIP3      OH2           -19.9611928259       16.8065045686       -5.4378778831  SOLV      3890            0.0000000000
     11783      3901  TIP3      H1            -19.9451975069       16.0216700041       -6.0247384852  SOLV      3890            0.0000000000
     11784      3901  TIP3      H2            -20.4179212351       17.4702127805       -6.0006918521  SOLV      3890            0.0000000000
     11785      3902  TIP3      OH2           -19.9270321330       14.6879029888       -7.3256890932  SOLV      3891            0.0000000000
     11786      3902  TIP3      H1            -19.6348394777       15.0762215053       -8.1734058430  SOLV      3891            0.0000000000
     11787      3902  TIP3      H2            -20.8565339170       14.4484942099       -7.5277491470  SOLV      3891            0.0000000000
     11788      3903  TIP3      OH2           -19.7415611433       19.9937289949       -8.5668439934  SOLV      3892            0.0000000000
     11789      3903  TIP3      H1            -18.8724363891       20.0757048570       -8.9789508720  SOLV      3892            0.0000000000
     11790      3903  TIP3      H2            -20.2803886233       20.6407195279       -9.0693025859  SOLV      3892            0.0000000000
     11791      3904  TIP3      OH2           -13.8871971386       19.6491669773       -4.8252361108  SOLV      3893            0.0000000000
     11792      3904  TIP3      H1            -13.4391217393       18.7951464354       -4.7202373024  SOLV      3893            0.0000000000
     11793      3904  TIP3      H2            -13.1804764803       20.2005996845       -5.1891051277  SOLV      3893            0.0000000000
     11794      3905  TIP3      OH2           -13.4479739713       22.2185648810       -7.4252248615  SOLV      3894            0.0000000000
     11795      3905  TIP3      H1            -14.0286526239       22.7625416254       -8.0076059379  SOLV      3894            0.0000000000
     11796      3905  TIP3      H2            -12.5715637935       22.4255025603       -7.8187704172  SOLV      3894            0.0000000000
     11797      3906  TIP3      OH2           -21.1844129800       17.8393409180       -3.0769009932  SOLV      3895            0.0000000000
     11798      3906  TIP3      H1            -21.8504332238       17.1390646516       -2.9178456633  SOLV      3895            0.0000000000
     11799      3906  TIP3      H2            -20.8587108968       17.5964871798       -3.9662798691  SOLV      3895            0.0000000000
     11800      3907  TIP3      OH2           -18.6133736820       12.2887447219       -6.5943139489  SOLV      3896            0.0000000000
     11801      3907  TIP3      H1            -19.1173528637       13.0874501336       -6.8560381326  SOLV      3896            0.0000000000
     11802      3907  TIP3      H2            -19.2730427355       11.5817070307       -6.7484787623  SOLV      3896            0.0000000000
     11803      3908  TIP3      OH2           -17.3754829609       17.2847978309       -4.4820209808  SOLV      3897            0.0000000000
     11804      3908  TIP3      H1            -17.5446680315       17.1310918457       -3.5339206405  SOLV      3897            0.0000000000
     11805      3908  TIP3      H2            -18.2614698986       17.0569548773       -4.8382713504  SOLV      3897            0.0000000000
     11806      3909  TIP3      OH2           -14.9725127967       16.8597679065       -5.9078118366  SOLV      3898            0.0000000000
     11807      3909  TIP3      H1            -15.7211192606       16.8318207981       -5.2794248748  SOLV      3898            0.0000000000
     11808      3909  TIP3      H2            -14.2267367655       16.5338720435       -5.3629868614  SOLV      3898            0.0000000000
     11809      3910  TIP3      OH2           -12.6666774422       16.2539633897       -4.4503849854  SOLV      3899            0.0000000000
     11810      3910  TIP3      H1            -12.5357969804       15.2904354054       -4.3157794933  SOLV      3899            0.0000000000
     11811      3910  TIP3      H2            -12.7039778234       16.5930490417       -3.5322909416  SOLV      3899            0.0000000000
     11812      3911  TIP3      OH2           -22.7972506914       15.6521601632       -2.5133772154  SOLV      3900            0.0000000000
     11813      3911  TIP3      H1            -22.7779064172       14.7311574680       -2.8436369978  SOLV      3900            0.0000000000
     11814      3911  TIP3      H2            -22.4100994685       15.5315887881       -1.6219162507  SOLV      3900            0.0000000000
     11815      3912  TIP3      OH2           -17.7227539053       12.3648918436       -4.0039389531  SOLV      3901            0.0000000000
     11816      3912  TIP3      H1            -17.0557932123       11.6534627045       -4.0879548504  SOLV      3901            0.0000000000
     11817      3912  TIP3      H2            -18.1020325269       12.3490886793       -4.9078190903  SOLV      3901            0.0000000000
     11818      3913  TIP3      OH2           -17.0171851657       14.5269301977       -2.4591485412  SOLV      3902            0.0000000000
     11819      3913  TIP3      H1            -17.2225227202       13.8054281314       -3.0945238274  SOLV      3902            0.0000000000
     11820      3913  TIP3      H2            -17.8104125097       15.0971557732       -2.5352360555  SOLV      3902            0.0000000000
     11821      3914  TIP3      OH2           -24.7901113286       26.5689234607      -21.5200706322  SOLV      3903            0.0000000000
     11822      3914  TIP3      H1            -23.8393226388       26.7201918849      -21.4046906330  SOLV      3903            0.0000000000
     11823      3914  TIP3      H2            -24.8678010614       26.7923593102      -22.4585046046  SOLV      3903            0.0000000000
     11824      3915  TIP3      OH2           -30.0247557185       20.6396008443      -19.4336311772  SOLV      3904            0.0000000000
     11825      3915  TIP3      H1            -29.0595060370       20.8082895383      -19.5158156619  SOLV      3904            0.0000000000
     11826      3915  TIP3      H2            -30.1012849682       19.7452051669      -19.8286714439  SOLV      3904            0.0000000000
     11827      3916  TIP3      OH2           -30.9016807277       26.7785412025      -15.2487223173  SOLV      3905            0.0000000000
     11828      3916  TIP3      H1            -31.5194082502       26.1477651288      -15.6753214137  SOLV      3905            0.0000000000
     11829      3916  TIP3      H2            -30.4708520351       26.1992037555      -14.5785077054  SOLV      3905            0.0000000000
     11830      3917  TIP3      OH2           -29.5757245819       25.2658651212      -13.3284389336  SOLV      3906            0.0000000000
     11831      3917  TIP3      H1            -29.6854587410       24.5557125960      -12.6730126638  SOLV      3906            0.0000000000
     11832      3917  TIP3      H2            -29.0016288001       25.8653823581      -12.8133815879  SOLV      3906            0.0000000000
     11833      3918  TIP3      OH2           -12.2311053227       29.6666671750      -15.4460201919  SOLV      3907            0.0000000000
     11834      3918  TIP3      H1            -12.0667015583       29.5399069719      -14.4819275763  SOLV      3907            0.0000000000
     11835      3918  TIP3      H2            -11.3371970212       29.4319160063      -15.7833771882  SOLV      3907            0.0000000000
     11836      3919  TIP3      OH2           -11.7337096149       29.0704206913      -12.6829662146  SOLV      3908            0.0000000000
     11837      3919  TIP3      H1            -12.2557234999       28.2435758264      -12.5657133238  SOLV      3908            0.0000000000
     11838      3919  TIP3      H2            -11.0276021170       28.8980995802      -12.0330832384  SOLV      3908            0.0000000000
     11839      3920  TIP3      OH2           -11.5013192600       26.2312891919       -6.7625674445  SOLV      3909            0.0000000000
     11840      3920  TIP3      H1            -12.2096739803       26.3258240092       -6.0937899017  SOLV      3909            0.0000000000
     11841      3920  TIP3      H2            -11.0594868756       27.1019335688       -6.7016953787  SOLV      3909            0.0000000000
     11842      3921  TIP3      OH2           -13.3103156494       21.3440966228      -20.5534048142  SOLV      3910            0.0000000000
     11843      3921  TIP3      H1            -12.6316040138       21.9685173223      -20.8772682560  SOLV      3910            0.0000000000
     11844      3921  TIP3      H2            -12.8656304831       20.9709143161      -19.7578677066  SOLV      3910            0.0000000000
     11845      3922  TIP3      OH2           -12.0414386948       20.0441309598      -18.4981912729  SOLV      3911            0.0000000000
     11846      3922  TIP3      H1            -12.7036262843       19.6051151543      -17.9186813929  SOLV      3911            0.0000000000
     11847      3922  TIP3      H2            -11.3751324949       20.3614344257      -17.8541987447  SOLV      3911            0.0000000000
     11848      3923  TIP3      OH2           -11.4930314365       23.9692961389      -14.2354863022  SOLV      3912            0.0000000000
     11849      3923  TIP3      H1            -10.9218896111       23.2603679027      -14.6074461553  SOLV      3912            0.0000000000
     11850      3923  TIP3      H2            -11.5513270126       24.6018849835      -14.9692582829  SOLV      3912            0.0000000000
     11851      3924  TIP3      OH2           -13.2635399558       26.8645001658      -12.2905721254  SOLV      3913            0.0000000000
     11852      3924  TIP3      H1            -13.9476185750       27.3020955194      -11.7424803842  SOLV      3913            0.0000000000
     11853      3924  TIP3      H2            -13.8064832258       26.3505910840      -12.9278327065  SOLV      3913            0.0000000000
     11854      3925  TIP3      OH2           -12.6642798269       19.1294020069      -22.0816265782  SOLV      3914            0.0000000000
     11855      3925  TIP3      H1            -13.3858687195       19.1304516030      -22.7508095233  SOLV      3914            0.0000000000
     11856      3925  TIP3      H2            -12.9711119353       19.8657727444      -21.5133518025  SOLV      3914            0.0000000000
     11857      3926  TIP3      OH2           -13.9571057000       15.8371053445      -22.5801946031  SOLV      3915            0.0000000000
     11858      3926  TIP3      H1            -14.4501790514       16.1244693394      -23.3564248629  SOLV      3915            0.0000000000
     11859      3926  TIP3      H2            -14.1497165076       14.8737926725      -22.5999086467  SOLV      3915            0.0000000000
     11860      3927  TIP3      OH2           -13.9204711380       18.6134836552      -17.0805987701  SOLV      3916            0.0000000000
     11861      3927  TIP3      H1            -13.8675170223       17.6466901161      -17.1717089928  SOLV      3916            0.0000000000
     11862      3927  TIP3      H2            -14.0686449319       18.7189025286      -16.1132785160  SOLV      3916            0.0000000000
     11863      3928  TIP3      OH2           -27.6704735331       19.3695829028       -9.5820218778  SOLV      3917            0.0000000000
     11864      3928  TIP3      H1            -27.7050479932       19.0145495343      -10.4955960255  SOLV      3917            0.0000000000
     11865      3928  TIP3      H2            -26.6967042184       19.3606210713       -9.4244558876  SOLV      3917            0.0000000000
     11866      3929  TIP3      OH2           -10.9712817746       22.8755945792       -8.4920928347  SOLV      3918            0.0000000000
     11867      3929  TIP3      H1            -10.2861353553       22.1750072139       -8.5829621485  SOLV      3918            0.0000000000
     11868      3929  TIP3      H2            -10.7158477132       23.4994847803       -9.1866970454  SOLV      3918            0.0000000000
     11869      3930  TIP3      OH2            -9.1729538535       20.8563120412       -8.3872524335  SOLV      3919            0.0000000000
     11870      3930  TIP3      H1             -9.9297114628       20.3597190346       -8.0055118991  SOLV      3919            0.0000000000
     11871      3930  TIP3      H2             -8.4481888604       20.2174549378       -8.2094940012  SOLV      3919            0.0000000000
     11872      3931  TIP3      OH2           -14.5077592714       13.1708094914      -22.7527074566  SOLV      3920            0.0000000000
     11873      3931  TIP3      H1            -13.7958629835       12.8558131628      -22.1588091155  SOLV      3920            0.0000000000
     11874      3931  TIP3      H2            -15.2623587293       12.6002657952      -22.5263444168  SOLV      3920            0.0000000000
     11875      3932  TIP3      OH2           -13.9444519751       15.7715623008      -18.1864098479  SOLV      3921            0.0000000000
     11876      3932  TIP3      H1            -13.5492290166       14.8821838268      -18.0153732363  SOLV      3921            0.0000000000
     11877      3932  TIP3      H2            -13.3478979456       16.0786039140      -18.8909727730  SOLV      3921            0.0000000000
     11878      3933  TIP3      OH2           -12.3517836604       17.4732367357      -13.1723519858  SOLV      3922            0.0000000000
     11879      3933  TIP3      H1            -11.4998756471       17.7238484884      -13.5963659038  SOLV      3922            0.0000000000
     11880      3933  TIP3      H2            -12.1930298796       17.8325763427      -12.2786585601  SOLV      3922            0.0000000000
     11881      3934  TIP3      OH2           -11.5987842347       18.9471656486      -10.8811311241  SOLV      3923            0.0000000000
     11882      3934  TIP3      H1            -12.3766449892       19.2752916538      -10.3922669464  SOLV      3923            0.0000000000
     11883      3934  TIP3      H2            -11.2760431477       19.7635769091      -11.3187614614  SOLV      3923            0.0000000000
     11884      3935  TIP3      OH2           -25.4565936832       16.1902942343       -2.8044470163  SOLV      3924            0.0000000000
     11885      3935  TIP3      H1            -24.4779411378       16.1267105538       -2.7802706239  SOLV      3924            0.0000000000
     11886      3935  TIP3      H2            -25.6955700308       15.3082739091       -2.4579022730  SOLV      3924            0.0000000000
     11887      3936  TIP3      OH2            -7.1253198171       14.8966818902       -5.3291105031  SOLV      3925            0.0000000000
     11888      3936  TIP3      H1             -6.4985994593       14.2532444478       -5.7283429417  SOLV      3925            0.0000000000
     11889      3936  TIP3      H2             -7.4246125533       15.3964765921       -6.1183349569  SOLV      3925            0.0000000000
     11890      3937  TIP3      OH2           -12.8553602823       13.2899708494      -17.7757455644  SOLV      3926            0.0000000000
     11891      3937  TIP3      H1            -12.3900198406       13.1244953085      -16.9284682921  SOLV      3926            0.0000000000
     11892      3937  TIP3      H2            -13.4680082864       12.5239292387      -17.7909819896  SOLV      3926            0.0000000000
     11893      3938  TIP3      OH2           -25.8508302297       13.1231179150       -9.6624384277  SOLV      3927            0.0000000000
     11894      3938  TIP3      H1            -25.2633356114       12.3522627781       -9.5100354362  SOLV      3927            0.0000000000
     11895      3938  TIP3      H2            -25.2164665546       13.8564953863       -9.5723234895  SOLV      3927            0.0000000000
     11896      3939  TIP3      OH2           -27.8235970836       15.8688292182       -8.7855702954  SOLV      3928            0.0000000000
     11897      3939  TIP3      H1            -27.3390007190       15.9202094953       -9.6315393865  SOLV      3928            0.0000000000
     11898      3939  TIP3      H2            -27.5710043501       16.6987463772       -8.3638601204  SOLV      3928            0.0000000000
     11899      3940  TIP3      OH2            -8.4437407973       16.2200162102       -7.3205293587  SOLV      3929            0.0000000000
     11900      3940  TIP3      H1             -9.3065551080       16.6569865070       -7.1698512420  SOLV      3929            0.0000000000
     11901      3940  TIP3      H2             -8.7445330433       15.4631915935       -7.8636157389  SOLV      3929            0.0000000000
     11902      3941  TIP3      OH2           -12.0961608998       12.5955663074      -21.4176550315  SOLV      3930            0.0000000000
     11903      3941  TIP3      H1            -11.7033365150       11.8808916242      -21.9612692752  SOLV      3930            0.0000000000
     11904      3941  TIP3      H2            -11.3944865205       13.2750153621      -21.4240869617  SOLV      3930            0.0000000000
     11905      3942  TIP3      OH2           -27.9897738419       11.0289486544      -13.7407774296  SOLV      3931            0.0000000000
     11906      3942  TIP3      H1            -28.9121266780       10.8366826354      -13.4781542698  SOLV      3931            0.0000000000
     11907      3942  TIP3      H2            -28.1053406453       11.6247217902      -14.5007172552  SOLV      3931            0.0000000000
     11908      3943  TIP3      OH2           -16.2817279762       27.8194924755      -18.7025494796  SOLV      3932            0.0000000000
     11909      3943  TIP3      H1            -15.8715949502       27.5710501791      -19.5573505989  SOLV      3932            0.0000000000
     11910      3943  TIP3      H2            -15.9812169627       28.7243154382      -18.6125651965  SOLV      3932            0.0000000000
     11911      3944  TIP3      OH2           -25.7676028358       11.7188288238       -5.6522393558  SOLV      3933            0.0000000000
     11912      3944  TIP3      H1            -26.3010499370       11.6420496818       -4.8457200507  SOLV      3933            0.0000000000
     11913      3944  TIP3      H2            -26.4301212311       12.0766342872       -6.2765157158  SOLV      3933            0.0000000000
     11914      3945  TIP3      OH2           -25.3950330851       26.0758356753       -4.9196503211  SOLV      3934            0.0000000000
     11915      3945  TIP3      H1            -26.3040130058       25.7498056124       -5.0478338105  SOLV      3934            0.0000000000
     11916      3945  TIP3      H2            -25.1759389340       25.7399276354       -4.0414115213  SOLV      3934            0.0000000000
     11917      3946  TIP3      OH2           -23.5603056090       26.2721581747       -9.4292262414  SOLV      3935            0.0000000000
     11918      3946  TIP3      H1            -24.0245395733       27.0481639363       -9.8027761734  SOLV      3935            0.0000000000
     11919      3946  TIP3      H2            -22.6960828996       26.4143845467       -9.8668046319  SOLV      3935            0.0000000000
     11920      3947  TIP3      OH2           -19.2094773897       28.7278320061       -8.0795780068  SOLV      3936            0.0000000000
     11921      3947  TIP3      H1            -18.8013674875       28.7019561488       -7.1844978335  SOLV      3936            0.0000000000
     11922      3947  TIP3      H2            -18.5495873540       29.2633347181       -8.5666405718  SOLV      3936            0.0000000000
     11923      3948  TIP3      OH2           -17.3922145741       30.2318395928       -9.5060037797  SOLV      3937            0.0000000000
     11924      3948  TIP3      H1            -16.6853736357       29.6348937543       -9.7833097731  SOLV      3937            0.0000000000
     11925      3948  TIP3      H2            -16.8936536067       30.8173616302       -8.8892210697  SOLV      3937            0.0000000000
     11926      3949  TIP3      OH2            -9.4251726891       13.8398950859       -8.4578016173  SOLV      3938            0.0000000000
     11927      3949  TIP3      H1            -10.3211497449       13.6985580734       -8.8125891515  SOLV      3938            0.0000000000
     11928      3949  TIP3      H2             -9.0555952821       12.9285308530       -8.5362836992  SOLV      3938            0.0000000000
     11929      3950  TIP3      OH2           -26.5978875486       28.5173946853       -9.1458346434  SOLV      3939            0.0000000000
     11930      3950  TIP3      H1            -27.5351493968       28.7799538718       -9.2843987539  SOLV      3939            0.0000000000
     11931      3950  TIP3      H2            -26.3840650665       29.1190430882       -8.4006946189  SOLV      3939            0.0000000000
     11932      3951  TIP3      OH2           -24.3113513136       28.6274452853      -10.5662036456  SOLV      3940            0.0000000000
     11933      3951  TIP3      H1            -25.1858908734       28.6191300080      -10.1129214877  SOLV      3940            0.0000000000
     11934      3951  TIP3      H2            -24.5571566937       28.9956465647      -11.4402541490  SOLV      3940            0.0000000000
     11935      3952  TIP3      OH2           -20.2643903053       28.8702929467      -12.5894054278  SOLV      3941            0.0000000000
     11936      3952  TIP3      H1            -20.9722420865       29.0833771716      -13.2209661457  SOLV      3941            0.0000000000
     11937      3952  TIP3      H2            -20.1362936139       29.7297206826      -12.1242945435  SOLV      3941            0.0000000000
     11938      3953  TIP3      OH2           -17.5663998915       28.3695052343      -12.1331553172  SOLV      3942            0.0000000000
     11939      3953  TIP3      H1            -18.5343388295       28.4023045289      -12.2623029332  SOLV      3942            0.0000000000
     11940      3953  TIP3      H2            -17.3274492563       29.2824138108      -12.3193083977  SOLV      3942            0.0000000000
     11941      3954  TIP3      OH2           -15.4026161685       30.4100785357      -12.8862050487  SOLV      3943            0.0000000000
     11942      3954  TIP3      H1            -15.9463740624       31.0005423508      -13.4223954128  SOLV      3943            0.0000000000
     11943      3954  TIP3      H2            -15.2122406790       29.6705401283      -13.5091287015  SOLV      3943            0.0000000000
     11944      3955  TIP3      OH2           -27.7786978381       26.6926775381      -11.7121691277  SOLV      3944            0.0000000000
     11945      3955  TIP3      H1            -27.4972603928       26.3929795809      -10.8204218612  SOLV      3944            0.0000000000
     11946      3955  TIP3      H2            -27.0333154305       26.3233070711      -12.2375014127  SOLV      3944            0.0000000000
     11947      3956  TIP3      OH2           -25.7743423287       25.5439827964      -13.1572979628  SOLV      3945            0.0000000000
     11948      3956  TIP3      H1            -25.6390307118       24.6988927103      -12.6639662159  SOLV      3945            0.0000000000
     11949      3956  TIP3      H2            -24.8582607624       25.8851456592      -13.1937908443  SOLV      3945            0.0000000000
     11950      3957  TIP3      OH2           -23.0487310168       26.4636592207      -13.1085214689  SOLV      3946            0.0000000000
     11951      3957  TIP3      H1            -22.7918778976       25.5221573463      -13.1851808733  SOLV      3946            0.0000000000
     11952      3957  TIP3      H2            -22.6072565601       26.6738457153      -12.2631428860  SOLV      3946            0.0000000000
     11953      3958  TIP3      OH2           -12.0709863846       11.8231237871      -13.2429247715  SOLV      3947            0.0000000000
     11954      3958  TIP3      H1            -11.7653920898       12.3443208474      -14.0158923535  SOLV      3947            0.0000000000
     11955      3958  TIP3      H2            -13.0457752451       11.9321292832      -13.3027006506  SOLV      3947            0.0000000000
     11956      3959  TIP3      OH2           -11.2076459352       12.8338806911      -15.6208788469  SOLV      3948            0.0000000000
     11957      3959  TIP3      H1            -10.4614654220       12.3105784770      -15.9820259358  SOLV      3948            0.0000000000
     11958      3959  TIP3      H2            -10.8682965898       13.7468487662      -15.7641424674  SOLV      3948            0.0000000000
     11959      3960  TIP3      OH2           -24.9078221127       10.1647248465      -12.2405386502  SOLV      3949            0.0000000000
     11960      3960  TIP3      H1            -25.8144034411        9.8173293479      -12.1624921953  SOLV      3949            0.0000000000
     11961      3960  TIP3      H2            -24.4041322467        9.3191902010      -12.2422316761  SOLV      3949            0.0000000000
     11962      3961  TIP3      OH2           -26.7387388962        8.8314529837      -15.2858855897  SOLV      3950            0.0000000000
     11963      3961  TIP3      H1            -26.6433416235        9.1858313239      -16.1793911427  SOLV      3950            0.0000000000
     11964      3961  TIP3      H2            -27.2093542314        9.5187618452      -14.7901291896  SOLV      3950            0.0000000000
     11965      3962  TIP3      OH2           -20.5352396090       10.5574119834      -13.2320096920  SOLV      3951            0.0000000000
     11966      3962  TIP3      H1            -20.4092326952       11.4981741699      -13.4994773023  SOLV      3951            0.0000000000
     11967      3962  TIP3      H2            -20.1961786561       10.6187444839      -12.3308387163  SOLV      3951            0.0000000000
     11968      3963  TIP3      OH2           -14.7854348346       12.0201156957      -13.4014947291  SOLV      3952            0.0000000000
     11969      3963  TIP3      H1            -15.2710174560       11.8007073232      -14.2046525587  SOLV      3952            0.0000000000
     11970      3963  TIP3      H2            -15.0427234155       11.2664735989      -12.8185595474  SOLV      3952            0.0000000000
     11971      3964  TIP3      OH2           -14.6129747883       11.1265219759      -17.8560700423  SOLV      3953            0.0000000000
     11972      3964  TIP3      H1            -15.4321753994       11.6358733174      -17.6537003419  SOLV      3953            0.0000000000
     11973      3964  TIP3      H2            -14.8187993361       10.2832751534      -17.3969690417  SOLV      3953            0.0000000000
     11974      3965  TIP3      OH2           -29.9737223968       24.4416180303      -17.8097668509  SOLV      3954            0.0000000000
     11975      3965  TIP3      H1            -30.7687457273       24.1026228954      -18.2546065334  SOLV      3954            0.0000000000
     11976      3965  TIP3      H2            -29.9954132589       25.3683456800      -18.0780305734  SOLV      3954            0.0000000000
     11977      3966  TIP3      OH2           -25.8333117553       10.4583761053      -18.0706712894  SOLV      3955            0.0000000000
     11978      3966  TIP3      H1            -25.4268254141        9.7189294221      -18.5686305876  SOLV      3955            0.0000000000
     11979      3966  TIP3      H2            -25.0434973547       10.8954084988      -17.7072087585  SOLV      3955            0.0000000000
     11980      3967  TIP3      OH2           -20.8254870573       12.2116122146      -17.0391388446  SOLV      3956            0.0000000000
     11981      3967  TIP3      H1            -20.3172644417       11.6928479281      -16.4005960883  SOLV      3956            0.0000000000
     11982      3967  TIP3      H2            -20.5256996323       13.1215696275      -16.8017038188  SOLV      3956            0.0000000000
     11983      3968  TIP3      OH2           -22.0727041693       26.3882300144      -22.0052944656  SOLV      3957            0.0000000000
     11984      3968  TIP3      H1            -21.2014487709       26.5999676507      -22.4021084924  SOLV      3957            0.0000000000
     11985      3968  TIP3      H2            -22.3369768228       25.6567530440      -22.6106205253  SOLV      3957            0.0000000000
     11986      3969  TIP3      OH2           -14.9095046045       27.5771088871      -21.0793070518  SOLV      3958            0.0000000000
     11987      3969  TIP3      H1            -14.9621066431       26.5953442476      -21.1919386285  SOLV      3958            0.0000000000
     11988      3969  TIP3      H2            -15.3572775663       27.8761890938      -21.8959924778  SOLV      3958            0.0000000000
     11989      3970  TIP3      OH2           -22.8266085918       12.9298460483       -3.1808470149  SOLV      3959            0.0000000000
     11990      3970  TIP3      H1            -23.1934510936       12.2114752372       -2.6368837177  SOLV      3959            0.0000000000
     11991      3970  TIP3      H2            -21.8853899389       12.9066328949       -2.8992180191  SOLV      3959            0.0000000000
     11992      3971  TIP3      OH2           -20.3044328181       12.8957915062       -2.0149108024  SOLV      3960            0.0000000000
     11993      3971  TIP3      H1            -19.4608300268       12.6554856170       -2.4363611022  SOLV      3960            0.0000000000
     11994      3971  TIP3      H2            -20.4088634667       12.1752650035       -1.3604526049  SOLV      3960            0.0000000000
     11995      3972  TIP3      OH2           -28.4190621372       25.5668418722      -20.7443760330  SOLV      3961            0.0000000000
     11996      3972  TIP3      H1            -28.9697797918       24.7753875557      -20.8467868695  SOLV      3961            0.0000000000
     11997      3972  TIP3      H2            -27.6281226661       25.2922851636      -21.2479919762  SOLV      3961            0.0000000000
     11998      3973  TIP3      OH2           -12.0314026986       13.5437212555       -4.1481484359  SOLV      3962            0.0000000000
     11999      3973  TIP3      H1            -11.8642945493       13.2223472022       -3.2354793269  SOLV      3962            0.0000000000
     12000      3973  TIP3      H2            -11.1356587778       13.4813347977       -4.5435199594  SOLV      3962            0.0000000000
     12001      3974  TIP3      OH2           -12.7028351054       29.0597764134       -9.2386779779  SOLV      3963            0.0000000000
     12002      3974  TIP3      H1            -13.4957058659       28.7243205505       -9.7039886134  SOLV      3963            0.0000000000
     12003      3974  TIP3      H2            -12.9440459413       30.0038878409       -9.1430838708  SOLV      3963            0.0000000000
     12004      3975  TIP3      OH2             0.0107536370       22.7856563298      -21.6065205242  SOLV      3964            0.0000000000
     12005      3975  TIP3      H1             -0.3200479151       23.6828898933      -21.8170899959  SOLV      3964            0.0000000000
     12006      3975  TIP3      H2             -0.7581679241       22.2526355009      -21.8701458505  SOLV      3964            0.0000000000
     12007      3976  TIP3      OH2            -0.0077236350       22.7541517111      -17.6335925203  SOLV      3965            0.0000000000
     12008      3976  TIP3      H1              0.3487643688       22.5133986916      -16.7596086220  SOLV      3965            0.0000000000
     12009      3976  TIP3      H2             -0.4267786074       21.9188664392      -17.9031867567  SOLV      3965            0.0000000000
     12010      3977  TIP3      OH2            -7.1102605231       21.6403291189      -14.0507686326  SOLV      3966            0.0000000000
     12011      3977  TIP3      H1             -6.8451725658       20.9555725151      -13.4029214018  SOLV      3966            0.0000000000
     12012      3977  TIP3      H2             -6.3002060780       22.1690122272      -14.0755173096  SOLV      3966            0.0000000000
     12013      3978  TIP3      OH2             2.4377313093       25.8209450672      -20.8892465490  SOLV      3967            0.0000000000
     12014      3978  TIP3      H1              2.2732758855       25.1136740494      -20.2502744561  SOLV      3967            0.0000000000
     12015      3978  TIP3      H2              2.7624921420       26.5418218572      -20.3231164628  SOLV      3967            0.0000000000
     12016      3979  TIP3      OH2            -7.3296698811       25.8118718553      -16.9035488130  SOLV      3968            0.0000000000
     12017      3979  TIP3      H1             -7.3852357865       24.8296161444      -16.9005537909  SOLV      3968            0.0000000000
     12018      3979  TIP3      H2             -6.3624133944       25.9216635632      -16.8927017351  SOLV      3968            0.0000000000
     12019      3980  TIP3      OH2           -10.2297030293       17.8303934852      -19.0832289103  SOLV      3969            0.0000000000
     12020      3980  TIP3      H1            -10.7245208441       18.6385455760      -18.8661586311  SOLV      3969            0.0000000000
     12021      3980  TIP3      H2            -10.9427634763       17.2827957671      -19.4582900285  SOLV      3969            0.0000000000
     12022      3981  TIP3      OH2            -9.6841536910       20.6932717546      -17.2092726675  SOLV      3970            0.0000000000
     12023      3981  TIP3      H1             -9.2067416003       19.9000696113      -16.8712527106  SOLV      3970            0.0000000000
     12024      3981  TIP3      H2             -9.0525607750       21.0322804076      -17.8561671975  SOLV      3970            0.0000000000
     12025      3982  TIP3      OH2            -1.0139283390       30.3895993440      -20.6563321197  SOLV      3971            0.0000000000
     12026      3982  TIP3      H1             -0.6456008766       29.6830012521      -21.2277161641  SOLV      3971            0.0000000000
     12027      3982  TIP3      H2             -1.1280863569       29.9136755580      -19.8228818897  SOLV      3971            0.0000000000
     12028      3983  TIP3      OH2            -2.0415709718       25.0693147896      -17.2731963753  SOLV      3972            0.0000000000
     12029      3983  TIP3      H1             -1.6469271359       24.2590005926      -17.6392660937  SOLV      3972            0.0000000000
     12030      3983  TIP3      H2             -1.2101995604       25.5311861512      -17.0294976428  SOLV      3972            0.0000000000
     12031      3984  TIP3      OH2             8.1560649823       18.2271609058      -17.2763813801  SOLV      3973            0.0000000000
     12032      3984  TIP3      H1              8.4446149529       19.0681958595      -16.8690845633  SOLV      3973            0.0000000000
     12033      3984  TIP3      H2              8.3490548641       18.3924410115      -18.2149534832  SOLV      3973            0.0000000000
     12034      3985  TIP3      OH2             2.0881268845       20.0411683940      -16.9381192039  SOLV      3974            0.0000000000
     12035      3985  TIP3      H1              2.5089718901       19.1905539119      -16.7163818567  SOLV      3974            0.0000000000
     12036      3985  TIP3      H2              1.7713620871       19.8566898547      -17.8425926929  SOLV      3974            0.0000000000
     12037      3986  TIP3      OH2            -4.4876561616       16.6265127178      -17.3241141886  SOLV      3975            0.0000000000
     12038      3986  TIP3      H1             -4.6924907385       17.3557601573      -17.9442628101  SOLV      3975            0.0000000000
     12039      3986  TIP3      H2             -4.9885028171       15.8954194065      -17.7458185900  SOLV      3975            0.0000000000
     12040      3987  TIP3      OH2             2.4667003366       17.5331132010      -21.1126453541  SOLV      3976            0.0000000000
     12041      3987  TIP3      H1              3.1568490920       17.3724811002      -20.4272869163  SOLV      3976            0.0000000000
     12042      3987  TIP3      H2              3.0224801252       17.8909085609      -21.8297320744  SOLV      3976            0.0000000000
     12043      3988  TIP3      OH2            -8.1967606189       18.6365579581      -16.2353659085  SOLV      3977            0.0000000000
     12044      3988  TIP3      H1             -7.3678338543       18.4636806706      -15.7462538058  SOLV      3977            0.0000000000
     12045      3988  TIP3      H2             -8.0371222117       18.0766690751      -17.0257853885  SOLV      3977            0.0000000000
     12046      3989  TIP3      OH2            -3.8021027100       20.6242240493      -18.2445097984  SOLV      3978            0.0000000000
     12047      3989  TIP3      H1             -2.8590653389       20.3850254225      -18.1007246337  SOLV      3978            0.0000000000
     12048      3989  TIP3      H2             -4.1717350727       19.7741300740      -18.5661984204  SOLV      3978            0.0000000000
     12049      3990  TIP3      OH2             8.8819634597       20.3527296901      -15.6124408937  SOLV      3979            0.0000000000
     12050      3990  TIP3      H1              8.0274861147       20.7796548148      -15.8347920365  SOLV      3979            0.0000000000
     12051      3990  TIP3      H2              8.8719236481       20.4679877595      -14.6505051008  SOLV      3979            0.0000000000
     12052      3991  TIP3      OH2            -4.6766243186       16.4820301877      -12.9103924688  SOLV      3980            0.0000000000
     12053      3991  TIP3      H1             -5.2624708111       16.8352259778      -13.6025353218  SOLV      3980            0.0000000000
     12054      3991  TIP3      H2             -5.1966476430       16.6888524469      -12.1070531145  SOLV      3980            0.0000000000
     12055      3992  TIP3      OH2            -1.1666966930       24.9592932784      -22.8848991438  SOLV      3981            0.0000000000
     12056      3992  TIP3      H1             -1.5519690072       24.8407076044      -23.7643095280  SOLV      3981            0.0000000000
     12057      3992  TIP3      H2             -1.6153881952       25.7792070828      -22.5896375198  SOLV      3981            0.0000000000
     12058      3993  TIP3      OH2            -3.5115090065       24.2302127946      -15.0857688239  SOLV      3982            0.0000000000
     12059      3993  TIP3      H1             -4.0931639344       24.9138517540      -14.6881759109  SOLV      3982            0.0000000000
     12060      3993  TIP3      H2             -3.0760315848       24.7235078671      -15.8108362262  SOLV      3982            0.0000000000
     12061      3994  TIP3      OH2             4.4635457055       17.5872569324      -19.2704160459  SOLV      3983            0.0000000000
     12062      3994  TIP3      H1              4.1271683787       17.2883868823      -18.4073481239  SOLV      3983            0.0000000000
     12063      3994  TIP3      H2              4.9743495085       18.3792513864      -19.0148708451  SOLV      3983            0.0000000000
     12064      3995  TIP3      OH2            -5.8624700368       17.6204859903      -15.1397702350  SOLV      3984            0.0000000000
     12065      3995  TIP3      H1             -5.2408917459       18.3289344646      -14.8498422065  SOLV      3984            0.0000000000
     12066      3995  TIP3      H2             -5.3306585157       17.2181969105      -15.8634736254  SOLV      3984            0.0000000000
     12067      3996  TIP3      OH2            -5.1969774492       26.1935479849      -14.0138705609  SOLV      3985            0.0000000000
     12068      3996  TIP3      H1             -5.4727597258       27.0805494911      -14.3239754966  SOLV      3985            0.0000000000
     12069      3996  TIP3      H2             -5.9779663283       25.9597228214      -13.4715038746  SOLV      3985            0.0000000000
     12070      3997  TIP3      OH2           -11.3370685504       23.0537369315      -21.6877861236  SOLV      3986            0.0000000000
     12071      3997  TIP3      H1            -11.7203089654       23.3350809224      -22.5403431494  SOLV      3986            0.0000000000
     12072      3997  TIP3      H2            -10.9773734377       23.8838073859      -21.3320171873  SOLV      3986            0.0000000000
     12073      3998  TIP3      OH2             3.0695186514       28.2547495702      -19.2826712698  SOLV      3987            0.0000000000
     12074      3998  TIP3      H1              2.1744479782       28.1522097492      -18.8848453980  SOLV      3987            0.0000000000
     12075      3998  TIP3      H2              2.9817553258       29.1263458936      -19.7148366770  SOLV      3987            0.0000000000
     12076      3999  TIP3      OH2             6.0945108027       17.2136360471      -15.5914710923  SOLV      3988            0.0000000000
     12077      3999  TIP3      H1              5.2025396624       17.4698279975      -15.8800366441  SOLV      3988            0.0000000000
     12078      3999  TIP3      H2              6.6550212245       17.5471840068      -16.3215925879  SOLV      3988            0.0000000000
     12079      4000  TIP3      OH2            -1.0523217678       13.6101055986      -15.7913507424  SOLV      3989            0.0000000000
     12080      4000  TIP3      H1             -1.2279313463       12.6721555120      -15.5858757758  SOLV      3989            0.0000000000
     12081      4000  TIP3      H2             -1.7992103139       14.0328171931      -15.3096742506  SOLV      3989            0.0000000000
     12082      4001  TIP3      OH2             0.0576787427       28.6767025311      -22.5693829857  SOLV      3990            0.0000000000
     12083      4001  TIP3      H1              0.5570988371       27.8368324390      -22.7152513678  SOLV      3990            0.0000000000
     12084      4001  TIP3      H2              0.7053609061       29.3042554487      -22.9646715969  SOLV      3990            0.0000000000
     12085      4002  TIP3      OH2             1.5288146484       26.5382984586      -23.3845505891  SOLV      3991            0.0000000000
     12086      4002  TIP3      H1              1.2191292412       25.7189077701      -23.7916742894  SOLV      3991            0.0000000000
     12087      4002  TIP3      H2              1.9262594234       26.2032548989      -22.5486555283  SOLV      3991            0.0000000000
     12088      4003  TIP3      OH2             5.3744847130       27.2977264724      -15.8090093350  SOLV      3992            0.0000000000
     12089      4003  TIP3      H1              5.2346864411       26.5194223949      -16.3923340942  SOLV      3992            0.0000000000
     12090      4003  TIP3      H2              5.1790268461       28.0386094539      -16.4212928662  SOLV      3992            0.0000000000
     12091      4004  TIP3      OH2            -1.7232266429       21.2732106982      -23.2192076055  SOLV      3993            0.0000000000
     12092      4004  TIP3      H1             -2.5066481241       21.8194201861      -23.4304454675  SOLV      3993            0.0000000000
     12093      4004  TIP3      H2             -1.2458254970       21.2633572203      -24.0680471396  SOLV      3993            0.0000000000
     12094      4005  TIP3      OH2            -2.1367839707       19.1756518390      -26.1627920007  SOLV      3994            0.0000000000
     12095      4005  TIP3      H1             -1.4927469260       19.6856946224      -25.6381369392  SOLV      3994            0.0000000000
     12096      4005  TIP3      H2             -1.5359043073       18.5453448273      -26.6115311108  SOLV      3994            0.0000000000
     12097      4006  TIP3      OH2             7.3317953279       23.7778357333      -17.3337487354  SOLV      3995            0.0000000000
     12098      4006  TIP3      H1              6.4713011437       24.2512525584      -17.3018442812  SOLV      3995            0.0000000000
     12099      4006  TIP3      H2              7.6163640304       23.9995952551      -18.2466130271  SOLV      3995            0.0000000000
     12100      4007  TIP3      OH2             1.7904729872       22.1109007206      -23.5639807553  SOLV      3996            0.0000000000
     12101      4007  TIP3      H1              1.2436824740       22.3387705968      -22.7748908034  SOLV      3996            0.0000000000
     12102      4007  TIP3      H2              2.6354534852       21.8712527020      -23.1270368426  SOLV      3996            0.0000000000
     12103      4008  TIP3      OH2             4.1175158031       22.5490088984      -14.4251416886  SOLV      3997            0.0000000000
     12104      4008  TIP3      H1              4.0587216784       23.3374404832      -13.8562049549  SOLV      3997            0.0000000000
     12105      4008  TIP3      H2              3.2383732088       22.5617482730      -14.8506304122  SOLV      3997            0.0000000000
     12106      4009  TIP3      OH2            -5.8884316281       22.0756123178      -19.3531635636  SOLV      3998            0.0000000000
     12107      4009  TIP3      H1             -6.2869618736       21.4783958414      -20.0205330756  SOLV      3998            0.0000000000
     12108      4009  TIP3      H2             -5.1374860154       21.5369796757      -19.0196054838  SOLV      3998            0.0000000000
     12109      4010  TIP3      OH2            -4.5890408237       26.2427216826      -17.8959949830  SOLV      3999            0.0000000000
     12110      4010  TIP3      H1             -4.7992899412       25.8601348105      -18.7621094131  SOLV      3999            0.0000000000
     12111      4010  TIP3      H2             -3.7053828330       25.8566851309      -17.7145087494  SOLV      3999            0.0000000000
     12112      4011  TIP3      OH2            -4.6196489228       21.8026290671      -15.8215822131  SOLV      4000            0.0000000000
     12113      4011  TIP3      H1             -4.2417928211       21.5107657838      -16.6772479774  SOLV      4000            0.0000000000
     12114      4011  TIP3      H2             -4.1400972418       22.6393998717      -15.6443680611  SOLV      4000            0.0000000000
     12115      4012  TIP3      OH2             0.6745321210       28.1840496920      -18.0424180348  SOLV      4001            0.0000000000
     12116      4012  TIP3      H1              0.6067081382       28.9524155824      -17.4502832147  SOLV      4001            0.0000000000
     12117      4012  TIP3      H2              0.5346018120       27.4268572763      -17.4364518888  SOLV      4001            0.0000000000
     12118      4013  TIP3      OH2            -3.1524224812       27.3847249098      -12.5871502208  SOLV      4002            0.0000000000
     12119      4013  TIP3      H1             -3.7784381537       27.9700840592      -12.1114089633  SOLV      4002            0.0000000000
     12120      4013  TIP3      H2             -3.7816703285       26.8265437341      -13.0899339361  SOLV      4002            0.0000000000
     12121      4014  TIP3      OH2             0.1249245340       20.7118124248      -25.2512483098  SOLV      4003            0.0000000000
     12122      4014  TIP3      H1              0.7378465335       21.3090673663      -24.7651510540  SOLV      4003            0.0000000000
     12123      4014  TIP3      H2              0.3835627871       20.9046044193      -26.1863686887  SOLV      4003            0.0000000000
     12124      4015  TIP3      OH2            -5.7709079607       23.2217390001      -11.7147190403  SOLV      4004            0.0000000000
     12125      4015  TIP3      H1             -5.7402301847       24.0146707860      -11.1468179213  SOLV      4004            0.0000000000
     12126      4015  TIP3      H2             -6.6235560174       22.8250870337      -11.4473710229  SOLV      4004            0.0000000000
     12127      4016  TIP3      OH2            -2.3722812030       27.4361136851      -22.4983156345  SOLV      4005            0.0000000000
     12128      4016  TIP3      H1             -1.5276841827       27.9290485804      -22.4553761008  SOLV      4005            0.0000000000
     12129      4016  TIP3      H2             -2.9758544237       28.0828210546      -22.8771898427  SOLV      4005            0.0000000000
     12130      4017  TIP3      OH2            -5.2529843414       29.0283451376      -11.6923524369  SOLV      4006            0.0000000000
     12131      4017  TIP3      H1             -5.6006825846       29.0309543269      -12.6042257729  SOLV      4006            0.0000000000
     12132      4017  TIP3      H2             -6.0550062105       28.8215416234      -11.1636547454  SOLV      4006            0.0000000000
     12133      4018  TIP3      OH2             5.3137168231       13.0663605573      -24.7705118461  SOLV      4007            0.0000000000
     12134      4018  TIP3      H1              4.4988678003       13.2897115221      -24.2752248266  SOLV      4007            0.0000000000
     12135      4018  TIP3      H2              5.4696311782       13.8991138102      -25.2621533933  SOLV      4007            0.0000000000
     12136      4019  TIP3      OH2            -7.2176716718       20.5142809844      -21.3480632877  SOLV      4008            0.0000000000
     12137      4019  TIP3      H1             -7.9541603442       20.8922438430      -21.8726872197  SOLV      4008            0.0000000000
     12138      4019  TIP3      H2             -7.5370851195       19.6230800129      -21.1653772111  SOLV      4008            0.0000000000
     12139      4020  TIP3      OH2             3.3305322360       26.7089859677      -29.2052281129  SOLV      4009            0.0000000000
     12140      4020  TIP3      H1              3.3898706335       27.6167652104      -29.5540338176  SOLV      4009            0.0000000000
     12141      4020  TIP3      H2              4.2553635693       26.3924535592      -29.3242107487  SOLV      4009            0.0000000000
     12142      4021  TIP3      OH2            -9.4376335759       24.3796175480      -12.2447502195  SOLV      4010            0.0000000000
     12143      4021  TIP3      H1            -10.1078599662       24.1132665934      -12.9031792298  SOLV      4010            0.0000000000
     12144      4021  TIP3      H2             -9.0497729581       23.5190773176      -11.9705679497  SOLV      4010            0.0000000000
     12145      4022  TIP3      OH2           -10.8150014091       26.4014604150      -15.9234689728  SOLV      4011            0.0000000000
     12146      4022  TIP3      H1             -9.9881667739       25.9940720392      -16.2162229544  SOLV      4011            0.0000000000
     12147      4022  TIP3      H2            -10.4852328380       26.9495133629      -15.1873622621  SOLV      4011            0.0000000000
     12148      4023  TIP3      OH2             7.7481615419       30.8494710819      -15.3323174522  SOLV      4012            0.0000000000
     12149      4023  TIP3      H1              7.7678324843       29.8867463058      -15.1598269278  SOLV      4012            0.0000000000
     12150      4023  TIP3      H2              6.9059631706       31.0884225278      -14.8788121634  SOLV      4012            0.0000000000
     12151      4024  TIP3      OH2            -1.2472525070       28.6770395047      -14.0411539901  SOLV      4013            0.0000000000
     12152      4024  TIP3      H1             -1.2643114567       29.5896812975      -13.6831057572  SOLV      4013            0.0000000000
     12153      4024  TIP3      H2             -1.9405576619       28.2474396158      -13.4914072221  SOLV      4013            0.0000000000
     12154      4025  TIP3      OH2            -3.5790454543       30.0340985125      -24.6005844072  SOLV      4014            0.0000000000
     12155      4025  TIP3      H1             -3.9384785366       29.6559623375      -25.4264182674  SOLV      4014            0.0000000000
     12156      4025  TIP3      H2             -4.2404092899       30.7017484895      -24.3768350466  SOLV      4014            0.0000000000
     12157      4026  TIP3      OH2            -9.2252077588       28.4677951973      -20.5970651352  SOLV      4015            0.0000000000
     12158      4026  TIP3      H1             -8.7341227100       28.3900042852      -19.7490010943  SOLV      4015            0.0000000000
     12159      4026  TIP3      H2             -9.6205748714       27.5759992795      -20.6632393879  SOLV      4015            0.0000000000
     12160      4027  TIP3      OH2            -1.5346833727       29.0459466408      -28.0591573886  SOLV      4016            0.0000000000
     12161      4027  TIP3      H1             -1.0184922490       28.2955955833      -28.4383027478  SOLV      4016            0.0000000000
     12162      4027  TIP3      H2             -1.1886079667       29.0661945130      -27.1414969666  SOLV      4016            0.0000000000
     12163      4028  TIP3      OH2            -1.0321295973       29.4633302117      -25.3793284576  SOLV      4017            0.0000000000
     12164      4028  TIP3      H1             -1.9135972578       29.5911107434      -24.9647098789  SOLV      4017            0.0000000000
     12165      4028  TIP3      H2             -0.5350376952       29.0450566556      -24.6568045734  SOLV      4017            0.0000000000
     12166      4029  TIP3      OH2             6.6369428179       22.0994159344      -12.6128578014  SOLV      4018            0.0000000000
     12167      4029  TIP3      H1              5.7674296660       22.1589915736      -13.0381479931  SOLV      4018            0.0000000000
     12168      4029  TIP3      H2              6.8008961561       21.1387389817      -12.6668179223  SOLV      4018            0.0000000000
     12169      4030  TIP3      OH2            -7.4312922220       26.2439274879      -12.3796419948  SOLV      4019            0.0000000000
     12170      4030  TIP3      H1             -6.9100080332       26.0454012918      -11.5745738787  SOLV      4019            0.0000000000
     12171      4030  TIP3      H2             -8.1404595192       25.5676533147      -12.3240549656  SOLV      4019            0.0000000000
     12172      4031  TIP3      OH2            -3.3901093728       14.3589916274      -14.4792791635  SOLV      4020            0.0000000000
     12173      4031  TIP3      H1             -4.3240082785       14.1770501234      -14.7125971336  SOLV      4020            0.0000000000
     12174      4031  TIP3      H2             -3.4884244163       15.2065410779      -14.0060941386  SOLV      4020            0.0000000000
     12175      4032  TIP3      OH2             1.9211143705       15.4976066217      -12.5413985247  SOLV      4021            0.0000000000
     12176      4032  TIP3      H1              2.6281026843       15.2753175382      -11.9038912909  SOLV      4021            0.0000000000
     12177      4032  TIP3      H2              1.1041139891       15.3299320068      -12.0288070035  SOLV      4021            0.0000000000
     12178      4033  TIP3      OH2             4.4539439778       20.0086254368      -13.3267083749  SOLV      4022            0.0000000000
     12179      4033  TIP3      H1              3.9181866807       19.8919000778      -12.5086077363  SOLV      4022            0.0000000000
     12180      4033  TIP3      H2              4.0528423289       20.7964675170      -13.7301333660  SOLV      4022            0.0000000000
     12181      4034  TIP3      OH2             0.8185380372       21.0767583479      -27.8239063168  SOLV      4023            0.0000000000
     12182      4034  TIP3      H1              0.5322740804       20.8164326907      -28.7183030406  SOLV      4023            0.0000000000
     12183      4034  TIP3      H2              1.6942556857       21.4665807024      -28.0346510326  SOLV      4023            0.0000000000
     12184      4035  TIP3      OH2            -1.9593290368       14.8921211546      -24.7836254081  SOLV      4024            0.0000000000
     12185      4035  TIP3      H1             -2.2943507349       14.8513578189      -23.8641116965  SOLV      4024            0.0000000000
     12186      4035  TIP3      H2             -2.3509555947       14.0642196258      -25.1301978877  SOLV      4024            0.0000000000
     12187      4036  TIP3      OH2            -4.0946038640       19.5661868489      -14.3345390495  SOLV      4025            0.0000000000
     12188      4036  TIP3      H1             -4.3771509301       19.8782184862      -13.4583195557  SOLV      4025            0.0000000000
     12189      4036  TIP3      H2             -4.2587731342       20.3695899596      -14.8743359530  SOLV      4025            0.0000000000
     12190      4037  TIP3      OH2            -5.2636219203       18.4530025590      -19.1823225450  SOLV      4026            0.0000000000
     12191      4037  TIP3      H1             -6.1767777428       18.1623155897      -18.9691501787  SOLV      4026            0.0000000000
     12192      4037  TIP3      H2             -5.1463460728       18.0198493667      -20.0575677695  SOLV      4026            0.0000000000
     12193      4038  TIP3      OH2            -0.3342690911       19.2750461327      -21.8664586453  SOLV      4027            0.0000000000
     12194      4038  TIP3      H1             -0.8362611197       19.9856030318      -22.3199928512  SOLV      4027            0.0000000000
     12195      4038  TIP3      H2              0.2191653546       18.9256560352      -22.5919945302  SOLV      4027            0.0000000000
     12196      4039  TIP3      OH2             1.4270233826       22.2865456160      -10.7060955425  SOLV      4028            0.0000000000
     12197      4039  TIP3      H1              1.0123962992       21.5049678357      -11.1440348475  SOLV      4028            0.0000000000
     12198      4039  TIP3      H2              2.3275105398       21.9481297574      -10.5665620071  SOLV      4028            0.0000000000
     12199      4040  TIP3      OH2             1.2627706699       19.5400122774      -19.5295580422  SOLV      4029            0.0000000000
     12200      4040  TIP3      H1              0.5846986290       19.7873855277      -20.1898191755  SOLV      4029            0.0000000000
     12201      4040  TIP3      H2              1.6079897123       18.7391121674      -19.9741565627  SOLV      4029            0.0000000000
     12202      4041  TIP3      OH2            -5.9666000950       19.9039972217      -12.1546745200  SOLV      4030            0.0000000000
     12203      4041  TIP3      H1             -5.1721598557       20.3492516384      -11.7895158338  SOLV      4030            0.0000000000
     12204      4041  TIP3      H2             -6.0166074208       19.0895750674      -11.6210372480  SOLV      4030            0.0000000000
     12205      4042  TIP3      OH2            -5.3997472944       14.6403618005      -25.1480160965  SOLV      4031            0.0000000000
     12206      4042  TIP3      H1             -5.4717217956       14.6129004587      -24.1720355164  SOLV      4031            0.0000000000
     12207      4042  TIP3      H2             -6.1814339615       15.1828393866      -25.3682551819  SOLV      4031            0.0000000000
     12208      4043  TIP3      OH2            -9.9403788238       15.0626592846      -16.4498516371  SOLV      4032            0.0000000000
     12209      4043  TIP3      H1             -9.2035318616       15.3791430813      -15.8881450865  SOLV      4032            0.0000000000
     12210      4043  TIP3      H2             -9.4992372315       14.7212001786      -17.2403708913  SOLV      4032            0.0000000000
     12211      4044  TIP3      OH2           -10.3210065306       14.8488530595      -21.2476948191  SOLV      4033            0.0000000000
     12212      4044  TIP3      H1             -9.8357817762       15.2060393279      -22.0202981772  SOLV      4033            0.0000000000
     12213      4044  TIP3      H2            -10.9268971739       15.5937153524      -21.0726684778  SOLV      4033            0.0000000000
     12214      4045  TIP3      OH2             1.2989918986       21.9367508148      -15.1597109400  SOLV      4034            0.0000000000
     12215      4045  TIP3      H1              1.5987899588       21.2148341854      -15.7603651452  SOLV      4034            0.0000000000
     12216      4045  TIP3      H2              1.0300058845       21.4257037448      -14.3767180693  SOLV      4034            0.0000000000
     12217      4046  TIP3      OH2            -1.9294413862       16.6544313453      -18.5835925081  SOLV      4035            0.0000000000
     12218      4046  TIP3      H1             -2.7243407331       16.6479697785      -18.0135737229  SOLV      4035            0.0000000000
     12219      4046  TIP3      H2             -1.2136724393       16.5504332039      -17.9314442784  SOLV      4035            0.0000000000
     12220      4047  TIP3      OH2            -7.6214720664       17.2211544292      -18.5202614058  SOLV      4036            0.0000000000
     12221      4047  TIP3      H1             -8.5632156793       17.2887672380      -18.8061384157  SOLV      4036            0.0000000000
     12222      4047  TIP3      H2             -7.3972809506       16.2917071250      -18.7144000073  SOLV      4036            0.0000000000
     12223      4048  TIP3      OH2            -5.0003098247       17.1430888410      -21.5692428426  SOLV      4037            0.0000000000
     12224      4048  TIP3      H1             -4.0565507487       17.2885190416      -21.7733716945  SOLV      4037            0.0000000000
     12225      4048  TIP3      H2             -5.4546029940       17.3585054397      -22.4163185836  SOLV      4037            0.0000000000
     12226      4049  TIP3      OH2             3.0194831645       17.3825574561      -16.7377273404  SOLV      4038            0.0000000000
     12227      4049  TIP3      H1              2.8543276086       17.4794594799      -15.7656635860  SOLV      4038            0.0000000000
     12228      4049  TIP3      H2              2.2690951766       16.8139275195      -16.9771439192  SOLV      4038            0.0000000000
     12229      4050  TIP3      OH2            -6.4721414678       17.5414881368      -23.8282561016  SOLV      4039            0.0000000000
     12230      4050  TIP3      H1             -7.2001633085       17.0879072549      -24.2866334582  SOLV      4039            0.0000000000
     12231      4050  TIP3      H2             -5.9662271820       17.8970858391      -24.5874430958  SOLV      4039            0.0000000000
     12232      4051  TIP3      OH2             4.5725910105       34.3225561386      -14.3965297413  SOLV      4040            0.0000000000
     12233      4051  TIP3      H1              4.4868863849       34.5229392450      -15.3470748265  SOLV      4040            0.0000000000
     12234      4051  TIP3      H2              5.4018152711       34.8079478229      -14.2076714373  SOLV      4040            0.0000000000
     12235      4052  TIP3      OH2            -5.8081564858       25.5304611021      -10.1286386393  SOLV      4041            0.0000000000
     12236      4052  TIP3      H1             -4.9797609500       25.7287787734       -9.6473999999  SOLV      4041            0.0000000000
     12237      4052  TIP3      H2             -6.4241155775       25.4091416085       -9.3793082467  SOLV      4041            0.0000000000
     12238      4053  TIP3      OH2            -1.1971097184       19.9842862574      -17.5182465952  SOLV      4042            0.0000000000
     12239      4053  TIP3      H1             -0.4504772582       19.4883556157      -17.8779028855  SOLV      4042            0.0000000000
     12240      4053  TIP3      H2             -1.2021565741       19.6783253688      -16.5789481009  SOLV      4042            0.0000000000
     12241      4054  TIP3      OH2            -5.9920075876       14.7905359039      -18.7433896683  SOLV      4043            0.0000000000
     12242      4054  TIP3      H1             -6.3744298398       14.0471160628      -18.2245953227  SOLV      4043            0.0000000000
     12243      4054  TIP3      H2             -5.4823811144       14.3095171686      -19.4078808814  SOLV      4043            0.0000000000
     12244      4055  TIP3      OH2            -1.3201953422       19.3318453395      -14.8279641190  SOLV      4044            0.0000000000
     12245      4055  TIP3      H1             -2.2475646731       19.3792182999      -14.5329394989  SOLV      4044            0.0000000000
     12246      4055  TIP3      H2             -0.8373500819       19.4951093744      -13.9823982600  SOLV      4044            0.0000000000
     12247      4056  TIP3      OH2            -4.0421036707       22.7993185746      -23.7788326128  SOLV      4045            0.0000000000
     12248      4056  TIP3      H1             -4.7517352838       22.1292056543      -23.8821470289  SOLV      4045            0.0000000000
     12249      4056  TIP3      H2             -4.2406458687       23.1375940490      -22.8697273149  SOLV      4045            0.0000000000
     12250      4057  TIP3      OH2             4.9595160177       25.1701465550      -17.5040303487  SOLV      4046            0.0000000000
     12251      4057  TIP3      H1              5.1904007664       25.6852487297      -18.3047405418  SOLV      4046            0.0000000000
     12252      4057  TIP3      H2              4.1254370213       24.7247636073      -17.7722703437  SOLV      4046            0.0000000000
     12253      4058  TIP3      OH2             0.5229464099       15.9460722839      -25.2045522289  SOLV      4047            0.0000000000
     12254      4058  TIP3      H1             -0.4164800066       15.7100388231      -25.0191720543  SOLV      4047            0.0000000000
     12255      4058  TIP3      H2              0.6079800056       16.8495208882      -24.8385634939  SOLV      4047            0.0000000000
     12256      4059  TIP3      OH2             0.0432338920       26.0452958718      -13.8192846672  SOLV      4048            0.0000000000
     12257      4059  TIP3      H1              0.2681434370       25.6815179724      -12.9535868209  SOLV      4048            0.0000000000
     12258      4059  TIP3      H2             -0.4080378408       26.8758112265      -13.6052355725  SOLV      4048            0.0000000000
     12259      4060  TIP3      OH2             1.2345137470       18.3998234827      -24.0529486202  SOLV      4049            0.0000000000
     12260      4060  TIP3      H1              2.1961451809       18.4533387087      -23.8827419975  SOLV      4049            0.0000000000
     12261      4060  TIP3      H2              1.0623681758       19.2237698128      -24.5478922282  SOLV      4049            0.0000000000
     12262      4061  TIP3      OH2            -7.0796002823       23.0688142751      -17.0314588957  SOLV      4050            0.0000000000
     12263      4061  TIP3      H1             -6.6859899912       22.7418028053      -17.8664231022  SOLV      4050            0.0000000000
     12264      4061  TIP3      H2             -6.6149103656       22.5222082997      -16.3759517581  SOLV      4050            0.0000000000
     12265      4062  TIP3      OH2            -2.5663702567       24.2784314530      -25.5249151180  SOLV      4051            0.0000000000
     12266      4062  TIP3      H1             -3.0525393782       25.1354370096      -25.4864380042  SOLV      4051            0.0000000000
     12267      4062  TIP3      H2             -3.1055088883       23.7334643838      -24.9099636043  SOLV      4051            0.0000000000
     12268      4063  TIP3      OH2            -8.3032316702       22.3061841185      -10.8149485236  SOLV      4052            0.0000000000
     12269      4063  TIP3      H1             -8.0852264511       22.1032149434       -9.8845670656  SOLV      4052            0.0000000000
     12270      4063  TIP3      H2             -8.8991660657       21.5700281705      -11.0360076166  SOLV      4052            0.0000000000
     12271      4064  TIP3      OH2            -1.0433992434       23.3732041481      -10.6463282678  SOLV      4053            0.0000000000
     12272      4064  TIP3      H1             -1.4772628339       22.6869481366      -11.1783307989  SOLV      4053            0.0000000000
     12273      4064  TIP3      H2             -0.1072565537       23.0835615268      -10.7488613094  SOLV      4053            0.0000000000
     12274      4065  TIP3      OH2             1.5434188204       28.7356488807      -14.8761590580  SOLV      4054            0.0000000000
     12275      4065  TIP3      H1              0.5978949008       28.5956886470      -14.6925293755  SOLV      4054            0.0000000000
     12276      4065  TIP3      H2              1.8273346478       29.1792993867      -14.0492542531  SOLV      4054            0.0000000000
     12277      4066  TIP3      OH2             5.6405519056       19.3643159710      -25.7272854931  SOLV      4055            0.0000000000
     12278      4066  TIP3      H1              5.0073332444       18.9267177596      -26.3456286240  SOLV      4055            0.0000000000
     12279      4066  TIP3      H2              5.6043463921       20.2639494443      -26.1212557021  SOLV      4055            0.0000000000
     12280      4067  TIP3      OH2             7.8705934636       27.9654177647      -14.9598538518  SOLV      4056            0.0000000000
     12281      4067  TIP3      H1              6.8947031074       27.8623433035      -15.0171818824  SOLV      4056            0.0000000000
     12282      4067  TIP3      H2              8.1265240321       27.6271180891      -15.8476815843  SOLV      4056            0.0000000000
     12283      4068  TIP3      OH2             2.6787129462       27.5245305376      -26.6192843094  SOLV      4057            0.0000000000
     12284      4068  TIP3      H1              2.4171099020       26.8155358558      -26.0150283019  SOLV      4057            0.0000000000
     12285      4068  TIP3      H2              2.8275198210       27.0474021634      -27.4589902360  SOLV      4057            0.0000000000
     12286      4069  TIP3      OH2             2.6241581463       23.8102669230      -18.3573064801  SOLV      4058            0.0000000000
     12287      4069  TIP3      H1              1.6968976297       23.5513016309      -18.1925714654  SOLV      4058            0.0000000000
     12288      4069  TIP3      H2              2.9641147085       22.9897177960      -18.7691364128  SOLV      4058            0.0000000000
     12289      4070  TIP3      OH2            -6.0411401888       26.0868684497      -20.7036656440  SOLV      4059            0.0000000000
     12290      4070  TIP3      H1             -6.1317061696       26.8652762356      -21.2880114469  SOLV      4059            0.0000000000
     12291      4070  TIP3      H2             -6.9601678574       25.8228746115      -20.5914738910  SOLV      4059            0.0000000000
     12292      4071  TIP3      OH2           -10.4236027438       19.0970933524      -23.6705773752  SOLV      4060            0.0000000000
     12293      4071  TIP3      H1             -9.9753216429       19.9376248737      -23.4402434333  SOLV      4060            0.0000000000
     12294      4071  TIP3      H2            -11.1913510159       19.1227918543      -23.0554703359  SOLV      4060            0.0000000000
     12295      4072  TIP3      OH2            -4.7804667711       23.6977691255      -21.3601406834  SOLV      4061            0.0000000000
     12296      4072  TIP3      H1             -5.0802958494       24.5939689671      -21.1132474809  SOLV      4061            0.0000000000
     12297      4072  TIP3      H2             -5.0808255608       23.1725536313      -20.5944607590  SOLV      4061            0.0000000000
     12298      4073  TIP3      OH2            -3.3409855459       29.4855925698      -16.0595289766  SOLV      4062            0.0000000000
     12299      4073  TIP3      H1             -2.8884984603       30.1836778630      -16.5774083567  SOLV      4062            0.0000000000
     12300      4073  TIP3      H2             -2.5894921948       29.0948051201      -15.5805944245  SOLV      4062            0.0000000000
     12301      4074  TIP3      OH2            -6.9638744389       28.3346792010      -22.2413993738  SOLV      4063            0.0000000000
     12302      4074  TIP3      H1             -7.8029743827       28.4957317489      -21.7668596464  SOLV      4063            0.0000000000
     12303      4074  TIP3      H2             -6.5715384708       29.2371830788      -22.2096306840  SOLV      4063            0.0000000000
     12304      4075  TIP3      OH2             0.4817412919       25.8635123781      -16.4836313503  SOLV      4064            0.0000000000
     12305      4075  TIP3      H1              0.3616653109       25.8648012269      -15.5046279212  SOLV      4064            0.0000000000
     12306      4075  TIP3      H2              1.2429391260       25.2742852966      -16.5762670247  SOLV      4064            0.0000000000
     12307      4076  TIP3      OH2             0.3367427629       24.7621621117      -27.6423284251  SOLV      4065            0.0000000000
     12308      4076  TIP3      H1              0.8647366443       24.5263342555      -26.8445033012  SOLV      4065            0.0000000000
     12309      4076  TIP3      H2             -0.5486086147       24.4967907444      -27.3539659259  SOLV      4065            0.0000000000
     12310      4077  TIP3      OH2             2.9787504720       31.1382227979      -15.9948989924  SOLV      4066            0.0000000000
     12311      4077  TIP3      H1              2.1989350298       30.5462323539      -15.9880907520  SOLV      4066            0.0000000000
     12312      4077  TIP3      H2              2.7420090050       31.7705921800      -16.7025582255  SOLV      4066            0.0000000000
     12313      4078  TIP3      OH2             3.5454142207       29.5434222002      -29.6893800340  SOLV      4067            0.0000000000
     12314      4078  TIP3      H1              4.1258860638       30.3339256071      -29.6527781117  SOLV      4067            0.0000000000
     12315      4078  TIP3      H2              2.7487131373       29.9113319341      -29.2603512507  SOLV      4067            0.0000000000
     12316      4079  TIP3      OH2            -6.2237113579       17.3193481736      -10.7719357033  SOLV      4068            0.0000000000
     12317      4079  TIP3      H1             -7.1945841480       17.3171107906      -10.6690196589  SOLV      4068            0.0000000000
     12318      4079  TIP3      H2             -5.9411367487       16.7312523321      -10.0532021399  SOLV      4068            0.0000000000
     12319      4080  TIP3      OH2             1.8909573830       24.1350402520      -25.4584612527  SOLV      4069            0.0000000000
     12320      4080  TIP3      H1              1.7815063385       23.4609387882      -24.7574424500  SOLV      4069            0.0000000000
     12321      4080  TIP3      H2              2.8612008797       24.0755723293      -25.5970505976  SOLV      4069            0.0000000000
     12322      4081  TIP3      OH2            -9.0408560054       28.0245811527      -14.3955981132  SOLV      4070            0.0000000000
     12323      4081  TIP3      H1             -8.4262283431       27.3854436244      -13.9886782115  SOLV      4070            0.0000000000
     12324      4081  TIP3      H2             -8.7661357196       28.8506723535      -13.9631430631  SOLV      4070            0.0000000000
     12325      4082  TIP3      OH2            -6.1327868175       24.5865188283      -27.6038927900  SOLV      4071            0.0000000000
     12326      4082  TIP3      H1             -6.0008773573       23.6610691044      -27.8837207124  SOLV      4071            0.0000000000
     12327      4082  TIP3      H2             -6.3500232743       24.4709327933      -26.6579134836  SOLV      4071            0.0000000000
     12328      4083  TIP3      OH2            -6.6954696524       24.6266135357      -24.8768317556  SOLV      4072            0.0000000000
     12329      4083  TIP3      H1             -5.9185376945       24.3353821907      -24.3770821745  SOLV      4072            0.0000000000
     12330      4083  TIP3      H2             -6.6279408065       25.6054033996      -24.8011022217  SOLV      4072            0.0000000000
     12331      4084  TIP3      OH2            -9.3362542709       21.5302528933      -22.8686192959  SOLV      4073            0.0000000000
     12332      4084  TIP3      H1            -10.0160028060       21.9699117906      -22.3173489976  SOLV      4073            0.0000000000
     12333      4084  TIP3      H2             -9.1898344738       22.2163104629      -23.5478200352  SOLV      4073            0.0000000000
     12334      4085  TIP3      OH2             2.4601966248       17.7188364461      -14.1381957693  SOLV      4074            0.0000000000
     12335      4085  TIP3      H1              2.4576434233       18.4697832379      -13.5244292571  SOLV      4074            0.0000000000
     12336      4085  TIP3      H2              2.1045810376       17.0096940692      -13.5655549681  SOLV      4074            0.0000000000
     12337      4086  TIP3      OH2             1.0667848293       15.3905538861      -22.2497721327  SOLV      4075            0.0000000000
     12338      4086  TIP3      H1              0.9373544267       15.6475005902      -23.1771578678  SOLV      4075            0.0000000000
     12339      4086  TIP3      H2              1.4619881149       16.2050504908      -21.8656889244  SOLV      4075            0.0000000000
     12340      4087  TIP3      OH2            -3.9720890044       26.5715697423      -25.4173230985  SOLV      4076            0.0000000000
     12341      4087  TIP3      H1             -4.8467363274       26.8156752143      -25.0555851764  SOLV      4076            0.0000000000
     12342      4087  TIP3      H2             -3.8541924479       27.2688999436      -26.0783307333  SOLV      4076            0.0000000000
     12343      4088  TIP3      OH2            -2.1630351825       17.2745707824      -21.2569397724  SOLV      4077            0.0000000000
     12344      4088  TIP3      H1             -1.5180614920       17.9996711400      -21.3998020341  SOLV      4077            0.0000000000
     12345      4088  TIP3      H2             -2.0887458050       17.1482714012      -20.2838050404  SOLV      4077            0.0000000000
     12346      4089  TIP3      OH2            -0.6977734991       14.4235460720      -20.2842183362  SOLV      4078            0.0000000000
     12347      4089  TIP3      H1             -0.6885535404       15.1622419048      -19.6480182594  SOLV      4078            0.0000000000
     12348      4089  TIP3      H2             -0.0680748924       14.7616850408      -20.9607118181  SOLV      4078            0.0000000000
     12349      4090  TIP3      OH2            -6.4987064036       27.3355921335      -24.7318840519  SOLV      4079            0.0000000000
     12350      4090  TIP3      H1             -6.8187608901       28.0510179698      -25.3257262523  SOLV      4079            0.0000000000
     12351      4090  TIP3      H2             -6.7021585622       27.7131281400      -23.8466952117  SOLV      4079            0.0000000000
     12352      4091  TIP3      OH2            -5.5299896771       14.5104390619      -22.3984785707  SOLV      4080            0.0000000000
     12353      4091  TIP3      H1             -5.5686302858       15.3870295135      -21.9664673766  SOLV      4080            0.0000000000
     12354      4091  TIP3      H2             -4.5712051788       14.3297958867      -22.3028084552  SOLV      4080            0.0000000000
     12355      4092  TIP3      OH2             7.0328695276       19.3818525511      -13.4506314539  SOLV      4081            0.0000000000
     12356      4092  TIP3      H1              6.0634566809       19.4787662912      -13.2926021835  SOLV      4081            0.0000000000
     12357      4092  TIP3      H2              6.9971732364       18.8081000357      -14.2287804110  SOLV      4081            0.0000000000
     12358      4093  TIP3      OH2             3.4918913765       21.3627484640      -19.5163135927  SOLV      4082            0.0000000000
     12359      4093  TIP3      H1              2.7248609217       20.7739430621      -19.3875569900  SOLV      4082            0.0000000000
     12360      4093  TIP3      H2              4.1984487387       20.8861321407      -19.0288684979  SOLV      4082            0.0000000000
     12361      4094  TIP3      OH2            -9.3286348861       23.5947712372      -24.8372821006  SOLV      4083            0.0000000000
     12362      4094  TIP3      H1             -8.5577421550       24.1899233120      -24.7395383555  SOLV      4083            0.0000000000
     12363      4094  TIP3      H2             -8.9500527423       22.9841153768      -25.5085833758  SOLV      4083            0.0000000000
     12364      4095  TIP3      OH2            -9.9462304903       16.3984383389      -23.4972280876  SOLV      4084            0.0000000000
     12365      4095  TIP3      H1             -9.9444391057       17.3759728116      -23.5064841023  SOLV      4084            0.0000000000
     12366      4095  TIP3      H2            -10.7832119034       16.1960161947      -23.9296797154  SOLV      4084            0.0000000000
     12367      4096  TIP3      OH2             3.1907664481       30.9756894224      -20.0095296693  SOLV      4085            0.0000000000
     12368      4096  TIP3      H1              2.7913157089       31.3995010125      -20.8009897998  SOLV      4085            0.0000000000
     12369      4096  TIP3      H2              4.1426803105       31.1440177004      -20.2043310395  SOLV      4085            0.0000000000
     12370      4097  TIP3      OH2            -6.0812912069       13.6181995821      -14.7822232861  SOLV      4086            0.0000000000
     12371      4097  TIP3      H1             -6.3508225762       13.2453200430      -15.6470530039  SOLV      4086            0.0000000000
     12372      4097  TIP3      H2             -6.1508817781       12.8382412475      -14.1946184589  SOLV      4086            0.0000000000
     12373      4098  TIP3      OH2           -10.6355477257       25.9625212005      -20.9184500312  SOLV      4087            0.0000000000
     12374      4098  TIP3      H1            -11.4381056128       26.0534552648      -20.3927031604  SOLV      4087            0.0000000000
     12375      4098  TIP3      H2            -10.9538720179       26.2945207449      -21.7932530778  SOLV      4087            0.0000000000
     12376      4099  TIP3      OH2            -9.1064945950       31.0799610938      -10.0259726196  SOLV      4088            0.0000000000
     12377      4099  TIP3      H1             -8.2347354571       31.0405935403       -9.5823700247  SOLV      4088            0.0000000000
     12378      4099  TIP3      H2             -9.3333891272       30.1335777288      -10.0736768794  SOLV      4088            0.0000000000
     12379      4100  TIP3      OH2            -4.3190344518       30.8408362583       -9.8194520808  SOLV      4089            0.0000000000
     12380      4100  TIP3      H1             -3.3843556103       30.6019000738       -9.7365038936  SOLV      4089            0.0000000000
     12381      4100  TIP3      H2             -4.5960034460       30.2227314683      -10.5281968365  SOLV      4089            0.0000000000
     12382      4101  TIP3      OH2            -4.4905606800       26.6017551272      -28.4699421468  SOLV      4090            0.0000000000
     12383      4101  TIP3      H1             -4.9762312284       25.8257638969      -28.1021046896  SOLV      4090            0.0000000000
     12384      4101  TIP3      H2             -3.7319239551       26.1608405332      -28.9041719801  SOLV      4090            0.0000000000
     12385      4102  TIP3      OH2             2.0771780678       29.9335076319      -12.4375491274  SOLV      4091            0.0000000000
     12386      4102  TIP3      H1              2.0159959623       29.2293545111      -11.7502468011  SOLV      4091            0.0000000000
     12387      4102  TIP3      H2              2.8657909673       30.4312974028      -12.1462192266  SOLV      4091            0.0000000000
     12388      4103  TIP3      OH2            -0.1964263614       26.9905567853      -29.2503339043  SOLV      4092            0.0000000000
     12389      4103  TIP3      H1              0.2831618737       26.3104047021      -28.7372375044  SOLV      4092            0.0000000000
     12390      4103  TIP3      H2              0.3407670586       27.0625831792      -30.0735077074  SOLV      4092            0.0000000000
     12391      4104  TIP3      OH2            -7.8055802295       25.3098100481       -8.2150072077  SOLV      4093            0.0000000000
     12392      4104  TIP3      H1             -7.6323338127       24.3510013985       -8.1328822645  SOLV      4093            0.0000000000
     12393      4104  TIP3      H2             -8.6643265698       25.3121437424       -8.6906358818  SOLV      4093            0.0000000000
     12394      4105  TIP3      OH2            -8.0001753303       21.7337088599      -26.2645685646  SOLV      4094            0.0000000000
     12395      4105  TIP3      H1             -7.4313617030       21.4332233133      -25.5312633535  SOLV      4094            0.0000000000
     12396      4105  TIP3      H2             -7.3298295149       21.8054926697      -26.9795735121  SOLV      4094            0.0000000000
     12397      4106  TIP3      OH2            -1.7490477846       26.1248369273      -10.4998477083  SOLV      4095            0.0000000000
     12398      4106  TIP3      H1             -2.1406465004       26.3115534786      -11.3741644600  SOLV      4095            0.0000000000
     12399      4106  TIP3      H2             -1.4698273268       25.1860109364      -10.5869738726  SOLV      4095            0.0000000000
     12400      4107  TIP3      OH2            -2.8487676601       23.7489634510      -28.2100203482  SOLV      4096            0.0000000000
     12401      4107  TIP3      H1             -2.8160689465       23.8654148477      -27.2380336562  SOLV      4096            0.0000000000
     12402      4107  TIP3      H2             -2.8571498977       22.7693047806      -28.2711101870  SOLV      4096            0.0000000000
     12403      4108  TIP3      OH2             3.2038591225       26.2629641323      -14.4049907230  SOLV      4097            0.0000000000
     12404      4108  TIP3      H1              3.9611490445       26.6973771675      -14.8418937446  SOLV      4097            0.0000000000
     12405      4108  TIP3      H2              2.4882157986       26.8949958556      -14.5873871075  SOLV      4097            0.0000000000
     12406      4109  TIP3      OH2            -6.5636792947       22.7338394532       -8.4397732422  SOLV      4098            0.0000000000
     12407      4109  TIP3      H1             -5.8511912051       22.1514007026       -8.7289409131  SOLV      4098            0.0000000000
     12408      4109  TIP3      H2             -6.2558341291       22.9957869948       -7.5459058107  SOLV      4098            0.0000000000
     12409      4110  TIP3      OH2            -5.9899419810       20.8483595218      -24.1074647622  SOLV      4099            0.0000000000
     12410      4110  TIP3      H1             -6.2412099368       20.4676439012      -23.2485822863  SOLV      4099            0.0000000000
     12411      4110  TIP3      H2             -5.5925602200       20.0789412578      -24.5663676140  SOLV      4099            0.0000000000
     12412      4111  TIP3      OH2            -3.6764645724       21.3969154824      -11.8770776597  SOLV      4100            0.0000000000
     12413      4111  TIP3      H1             -4.2284043248       22.2024166764      -11.9634133429  SOLV      4100            0.0000000000
     12414      4111  TIP3      H2             -2.8863287214       21.6462083153      -12.4067922414  SOLV      4100            0.0000000000
     12415      4112  TIP3      OH2            -4.9086320887       18.8074507832      -25.6980896677  SOLV      4101            0.0000000000
     12416      4112  TIP3      H1             -5.1474649812       18.9240396741      -26.6403171331  SOLV      4101            0.0000000000
     12417      4112  TIP3      H2             -3.9302284306       18.8049228608      -25.7554042161  SOLV      4101            0.0000000000
     12418      4113  TIP3      OH2             1.9673712585       25.4978851363      -10.5098896858  SOLV      4102            0.0000000000
     12419      4113  TIP3      H1              2.7076295767       25.0891177560      -10.9783146650  SOLV      4102            0.0000000000
     12420      4113  TIP3      H2              1.7307586798       24.7927926929       -9.8841454744  SOLV      4102            0.0000000000
     12421      4114  TIP3      OH2             3.1371736504       21.9588374676      -28.9542309122  SOLV      4103            0.0000000000
     12422      4114  TIP3      H1              3.2047511083       21.5468850001      -29.8306895776  SOLV      4103            0.0000000000
     12423      4114  TIP3      H2              2.9146507260       22.8793853192      -29.2179262945  SOLV      4103            0.0000000000
     12424      4115  TIP3      OH2            -1.9282317663       16.6884163730      -12.9516911543  SOLV      4104            0.0000000000
     12425      4115  TIP3      H1             -1.5637589781       17.5856291908      -13.0150807281  SOLV      4104            0.0000000000
     12426      4115  TIP3      H2             -2.8891269163       16.8468142714      -12.8725573698  SOLV      4104            0.0000000000
     12427      4116  TIP3      OH2            -1.8724800525       22.5938358511      -13.5973353932  SOLV      4105            0.0000000000
     12428      4116  TIP3      H1             -1.0312222881       22.5455487455      -14.0692190308  SOLV      4105            0.0000000000
     12429      4116  TIP3      H2             -2.3996664396       23.1942101300      -14.1624092233  SOLV      4105            0.0000000000
     12430      4117  TIP3      OH2             4.1846567748       22.2436157925       -9.8064132058  SOLV      4106            0.0000000000
     12431      4117  TIP3      H1              4.4890658244       21.3273433835       -9.8983467061  SOLV      4106            0.0000000000
     12432      4117  TIP3      H2              4.8555154717       22.7332361887      -10.2976764001  SOLV      4106            0.0000000000
     12433      4118  TIP3      OH2             4.5098975720       24.7968703927      -12.5439015807  SOLV      4107            0.0000000000
     12434      4118  TIP3      H1              3.9301796152       25.3369478100      -13.1302772230  SOLV      4107            0.0000000000
     12435      4118  TIP3      H2              5.3868472515       24.9969267088      -12.9385534906  SOLV      4107            0.0000000000
     12436      4119  TIP3      OH2            -3.1501196707       20.4864980913       -8.2961364802  SOLV      4108            0.0000000000
     12437      4119  TIP3      H1             -3.7426669983       19.7129959485       -8.1985710138  SOLV      4108            0.0000000000
     12438      4119  TIP3      H2             -3.0180417758       20.5285175481       -9.2552793779  SOLV      4108            0.0000000000
     12439      4120  TIP3      OH2            -0.6283826288       14.6671277721      -11.7066642643  SOLV      4109            0.0000000000
     12440      4120  TIP3      H1             -1.0847513113       15.4118679695      -12.1685677730  SOLV      4109            0.0000000000
     12441      4120  TIP3      H2             -1.3085233117       13.9707325572      -11.7938514453  SOLV      4109            0.0000000000
     12442      4121  TIP3      OH2             3.0870501195       19.6573266492      -11.0407235953  SOLV      4110            0.0000000000
     12443      4121  TIP3      H1              2.1250365194       19.4769635185      -11.1431312986  SOLV      4110            0.0000000000
     12444      4121  TIP3      H2              3.3692559837       19.0304108515      -10.3624349169  SOLV      4110            0.0000000000
     12445      4122  TIP3      OH2             5.5869223375       18.8240244148       -9.4911806853  SOLV      4111            0.0000000000
     12446      4122  TIP3      H1              5.5417119534       17.8543937050       -9.3695028191  SOLV      4111            0.0000000000
     12447      4122  TIP3      H2              5.3862779484       19.1687324436       -8.5977551342  SOLV      4111            0.0000000000
     12448      4123  TIP3      OH2            -4.7965011661       18.2494331572       -7.6975937265  SOLV      4112            0.0000000000
     12449      4123  TIP3      H1             -4.7840543214       17.3223362502       -8.0079408164  SOLV      4112            0.0000000000
     12450      4123  TIP3      H2             -4.4098956696       18.1436388878       -6.8048313969  SOLV      4112            0.0000000000
     12451      4124  TIP3      OH2             0.2475166508       14.9159425911       -9.1169241679  SOLV      4113            0.0000000000
     12452      4124  TIP3      H1              0.9037103526       14.1970849388       -9.2033402566  SOLV      4113            0.0000000000
     12453      4124  TIP3      H2             -0.1530381322       14.8879582868      -10.0107548556  SOLV      4113            0.0000000000
     12454      4125  TIP3      OH2             0.9677925445       17.1248260235       -7.6246833079  SOLV      4114            0.0000000000
     12455      4125  TIP3      H1              0.7328407098       16.4076389588       -8.2521239211  SOLV      4114            0.0000000000
     12456      4125  TIP3      H2              0.1708013677       17.7023491612       -7.6724880914  SOLV      4114            0.0000000000
     12457      4126  TIP3      OH2            -6.7620415984       29.3705609894      -26.5575486798  SOLV      4115            0.0000000000
     12458      4126  TIP3      H1             -5.7968551643       29.2800361371      -26.6645815690  SOLV      4115            0.0000000000
     12459      4126  TIP3      H2             -6.9852931131       29.7066674192      -27.4365579791  SOLV      4115            0.0000000000
     12460      4127  TIP3      OH2           -12.0358865502       23.2275851112      -24.4839447401  SOLV      4116            0.0000000000
     12461      4127  TIP3      H1            -11.0855094248       23.4238308558      -24.6395329464  SOLV      4116            0.0000000000
     12462      4127  TIP3      H2            -12.1141422006       22.3328299698      -24.8813468830  SOLV      4116            0.0000000000
     12463      4128  TIP3      OH2           -12.9288950655       29.3556760122      -20.3808060902  SOLV      4117            0.0000000000
     12464      4128  TIP3      H1            -13.5460523401       28.6919198232      -20.7632052594  SOLV      4117            0.0000000000
     12465      4128  TIP3      H2            -12.5186197078       28.8211611537      -19.6638026442  SOLV      4117            0.0000000000
     12466      4129  TIP3      OH2           -11.8368235667       28.0952413846      -18.1869120997  SOLV      4118            0.0000000000
     12467      4129  TIP3      H1            -11.8619420192       27.2473693367      -17.7126992075  SOLV      4118            0.0000000000
     12468      4129  TIP3      H2            -11.0596747196       28.4981876501      -17.7544108312  SOLV      4118            0.0000000000
     12469      4130  TIP3      OH2             5.7442886811       31.7713245209      -20.4131262835  SOLV      4119            0.0000000000
     12470      4130  TIP3      H1              6.0895243593       31.9716006291      -19.5224478239  SOLV      4119            0.0000000000
     12471      4130  TIP3      H2              6.4356584955       32.1332457228      -20.9906208215  SOLV      4119            0.0000000000
     12472      4131  TIP3      OH2             6.2740541737       31.6940502603      -17.6558805931  SOLV      4120            0.0000000000
     12473      4131  TIP3      H1              5.7328674778       30.8731913662      -17.6804249998  SOLV      4120            0.0000000000
     12474      4131  TIP3      H2              6.9454708568       31.4259723726      -17.0030042642  SOLV      4120            0.0000000000
     12475      4132  TIP3      OH2             6.4809975489       28.8179800238      -11.8761148907  SOLV      4121            0.0000000000
     12476      4132  TIP3      H1              5.7686115045       28.9067027915      -11.2107965776  SOLV      4121            0.0000000000
     12477      4132  TIP3      H2              6.9266802878       29.6857405319      -11.8028050440  SOLV      4121            0.0000000000
     12478      4133  TIP3      OH2             4.6466513206       23.9123511603      -25.7022385735  SOLV      4122            0.0000000000
     12479      4133  TIP3      H1              5.3043324003       24.5609443056      -26.0280314457  SOLV      4122            0.0000000000
     12480      4133  TIP3      H2              5.1127094978       23.5511897679      -24.9152818010  SOLV      4122            0.0000000000
     12481      4134  TIP3      OH2             5.9341975104       22.5949178368      -23.6474606326  SOLV      4123            0.0000000000
     12482      4134  TIP3      H1              5.2596384314       22.1843596482      -23.0633232233  SOLV      4123            0.0000000000
     12483      4134  TIP3      H2              6.5821256209       22.9499372024      -23.0050017083  SOLV      4123            0.0000000000
     12484      4135  TIP3      OH2             6.5140054303       26.5607601012      -19.3454016506  SOLV      4124            0.0000000000
     12485      4135  TIP3      H1              7.0267523038       25.8519846117      -19.7849718598  SOLV      4124            0.0000000000
     12486      4135  TIP3      H2              6.4992360603       27.2603717719      -20.0274461943  SOLV      4124            0.0000000000
     12487      4136  TIP3      OH2             4.7236869123       29.4499963987      -17.4031402505  SOLV      4125            0.0000000000
     12488      4136  TIP3      H1              4.0128960186       29.8939947472      -16.9006324001  SOLV      4125            0.0000000000
     12489      4136  TIP3      H2              4.2214727094       29.0043839287      -18.1210819422  SOLV      4125            0.0000000000
     12490      4137  TIP3      OH2             5.2716136370       21.6812857936      -27.2193387956  SOLV      4126            0.0000000000
     12491      4137  TIP3      H1              4.5443571269       21.6733077398      -27.8803617314  SOLV      4126            0.0000000000
     12492      4137  TIP3      H2              4.9870828122       22.4449403295      -26.6747618584  SOLV      4126            0.0000000000
     12493      4138  TIP3      OH2             3.9631014179       18.3839030824      -27.6211712021  SOLV      4127            0.0000000000
     12494      4138  TIP3      H1              3.6782452837       18.7684852422      -28.4596253934  SOLV      4127            0.0000000000
     12495      4138  TIP3      H2              3.7534720431       17.4375285732      -27.7672847188  SOLV      4127            0.0000000000
     12496      4139  TIP3      OH2             4.0410255346       21.2000088788      -22.2058128898  SOLV      4128            0.0000000000
     12497      4139  TIP3      H1              4.1214472539       20.2359658678      -22.2900567539  SOLV      4128            0.0000000000
     12498      4139  TIP3      H2              3.8889732792       21.3112928609      -21.2394099383  SOLV      4128            0.0000000000
     12499      4140  TIP3      OH2            -9.7188237569       21.9840855608      -14.7442054394  SOLV      4129            0.0000000000
     12500      4140  TIP3      H1             -9.7349318509       21.5756355122      -15.6359589913  SOLV      4129            0.0000000000
     12501      4140  TIP3      H2             -8.7505905904       21.9431622549      -14.5529469517  SOLV      4129            0.0000000000
     12502      4141  TIP3      OH2             6.9858314409       25.4420481795      -13.6160550880  SOLV      4130            0.0000000000
     12503      4141  TIP3      H1              7.6738020552       24.7519412153      -13.7426601710  SOLV      4130            0.0000000000
     12504      4141  TIP3      H2              7.2110394698       26.0910430148      -14.2991775925  SOLV      4130            0.0000000000
     12505      4142  TIP3      OH2             8.8003685466       23.4147897790      -13.5970350649  SOLV      4131            0.0000000000
     12506      4142  TIP3      H1              8.0389633561       22.9432423948      -13.1910663124  SOLV      4131            0.0000000000
     12507      4142  TIP3      H2              9.5192077225       22.7842429618      -13.3722974295  SOLV      4131            0.0000000000
     12508      4143  TIP3      OH2             3.4832063586       15.6869596813      -27.9298770243  SOLV      4132            0.0000000000
     12509      4143  TIP3      H1              4.2046835242       15.4341583979      -27.3171218982  SOLV      4132            0.0000000000
     12510      4143  TIP3      H2              2.7335351268       15.1508477053      -27.6303216743  SOLV      4132            0.0000000000
     12511      4144  TIP3      OH2             4.0314970797       18.3470412031      -23.3056630301  SOLV      4133            0.0000000000
     12512      4144  TIP3      H1              4.4346902968       17.4577325634      -23.1573700188  SOLV      4133            0.0000000000
     12513      4144  TIP3      H2              4.6148142098       18.6748057033      -24.0129905245  SOLV      4133            0.0000000000
     12514      4145  TIP3      OH2             5.6087795304       20.0218391945      -18.3165647557  SOLV      4134            0.0000000000
     12515      4145  TIP3      H1              6.4693064467       20.2646542290      -18.7266956834  SOLV      4134            0.0000000000
     12516      4145  TIP3      H2              5.7526101354       20.3970589547      -17.4248975720  SOLV      4134            0.0000000000
     12517      4146  TIP3      OH2             6.3568819846       21.5079408000      -16.0494385060  SOLV      4135            0.0000000000
     12518      4146  TIP3      H1              5.5989937642       21.8174822695      -15.5153772597  SOLV      4135            0.0000000000
     12519      4146  TIP3      H2              6.6724717707       22.3450083948      -16.4487554936  SOLV      4135            0.0000000000
     12520      4147  TIP3      OH2            -7.4827213048       18.7702477062       -7.9274979575  SOLV      4136            0.0000000000
     12521      4147  TIP3      H1             -6.5047605082       18.6965941533       -7.9372852938  SOLV      4136            0.0000000000
     12522      4147  TIP3      H2             -7.7207364501       17.8854151428       -7.5866090517  SOLV      4136            0.0000000000
     12523      4148  TIP3      OH2            10.8816365112       17.4937911771      -10.4631316580  SOLV      4137            0.0000000000
     12524      4148  TIP3      H1             11.4765115455       16.8327039910      -10.8776734419  SOLV      4137            0.0000000000
     12525      4148  TIP3      H2             10.5426040372       17.9750416590      -11.2489998080  SOLV      4137            0.0000000000
     12526      4149  TIP3      OH2             5.1064312494       15.8524127004      -22.8987548734  SOLV      4138            0.0000000000
     12527      4149  TIP3      H1              5.5874034778       15.6960254049      -22.0581657355  SOLV      4138            0.0000000000
     12528      4149  TIP3      H2              4.4957029831       15.0868917589      -22.9002820704  SOLV      4138            0.0000000000
     12529      4150  TIP3      OH2            -7.9085293580       15.7041675652      -14.6787619999  SOLV      4139            0.0000000000
     12530      4150  TIP3      H1             -7.3063545872       14.9367400736      -14.5930193590  SOLV      4139            0.0000000000
     12531      4150  TIP3      H2             -7.2648643309       16.4257808738      -14.7936833939  SOLV      4139            0.0000000000
     12532      4151  TIP3      OH2            -9.9046035186       18.4329846961      -13.9895656460  SOLV      4140            0.0000000000
     12533      4151  TIP3      H1             -9.4034782299       18.3909968072      -14.8279760079  SOLV      4140            0.0000000000
     12534      4151  TIP3      H2             -9.4610141123       19.1552035658      -13.5319125029  SOLV      4140            0.0000000000
     12535      4152  TIP3      OH2             9.5466895309       18.7932666116      -12.4425757896  SOLV      4141            0.0000000000
     12536      4152  TIP3      H1              8.7090788271       19.2435784483      -12.2073110774  SOLV      4141            0.0000000000
     12537      4152  TIP3      H2              9.1825989902       18.0689393180      -12.9919759222  SOLV      4141            0.0000000000
     12538      4153  TIP3      OH2             5.8650493829       15.1593497058      -26.5349833430  SOLV      4142            0.0000000000
     12539      4153  TIP3      H1              6.2764875959       14.4642967450      -27.0893699253  SOLV      4142            0.0000000000
     12540      4153  TIP3      H2              6.5433139534       15.8636774470      -26.5449734383  SOLV      4142            0.0000000000
     12541      4154  TIP3      OH2           -10.0195522507       13.4413974301      -18.9531966679  SOLV      4143            0.0000000000
     12542      4154  TIP3      H1            -10.9370370089       13.3714282557      -18.6372442262  SOLV      4143            0.0000000000
     12543      4154  TIP3      H2            -10.1137074813       14.0406437901      -19.7228369815  SOLV      4143            0.0000000000
     12544      4155  TIP3      OH2             1.5370409322       30.4869781095      -23.9091985182  SOLV      4144            0.0000000000
     12545      4155  TIP3      H1              2.1214212407       30.4152666909      -24.6921353643  SOLV      4144            0.0000000000
     12546      4155  TIP3      H2              2.0368894203       31.0934767812      -23.3335953235  SOLV      4144            0.0000000000
     12547      4156  TIP3      OH2            -7.8167817613       14.2683505706      -10.8035707178  SOLV      4145            0.0000000000
     12548      4156  TIP3      H1             -8.3418488648       14.2034350023       -9.9902367426  SOLV      4145            0.0000000000
     12549      4156  TIP3      H2             -8.4794936535       14.6312698430      -11.4235281667  SOLV      4145            0.0000000000
     12550      4157  TIP3      OH2            -7.4432896544       28.6533391485      -10.0110376410  SOLV      4146            0.0000000000
     12551      4157  TIP3      H1             -8.3281567853       28.3058281785      -10.2229589538  SOLV      4146            0.0000000000
     12552      4157  TIP3      H2             -7.2682371731       28.2484070451       -9.1520598996  SOLV      4146            0.0000000000
     12553      4158  TIP3      OH2            -5.5990547360       28.8708422990      -14.5429469708  SOLV      4147            0.0000000000
     12554      4158  TIP3      H1             -6.0164624318       29.6681008563      -14.9292760045  SOLV      4147            0.0000000000
     12555      4158  TIP3      H2             -4.7289565405       28.9593100934      -14.9825842186  SOLV      4147            0.0000000000
     12556      4159  TIP3      OH2            -1.2615033731       31.3170625327      -13.1773819844  SOLV      4148            0.0000000000
     12557      4159  TIP3      H1             -0.8177941968       31.3002150543      -12.3016329179  SOLV      4148            0.0000000000
     12558      4159  TIP3      H2             -0.6001340879       31.8149053029      -13.7063702451  SOLV      4148            0.0000000000
     12559      4160  TIP3      OH2             0.5324088964       32.7977601468      -14.6158901518  SOLV      4149            0.0000000000
     12560      4160  TIP3      H1              1.2160840908       32.2599820406      -15.0393986237  SOLV      4149            0.0000000000
     12561      4160  TIP3      H2              1.0851857184       33.3496963193      -14.0149127160  SOLV      4149            0.0000000000
     12562      4161  TIP3      OH2             8.5461076832       16.4148089617      -13.5989565218  SOLV      4150            0.0000000000
     12563      4161  TIP3      H1              7.6418509694       16.3104045529      -13.9451516012  SOLV      4150            0.0000000000
     12564      4161  TIP3      H2              8.8818884909       15.4921926855      -13.6744502487  SOLV      4150            0.0000000000
     12565      4162  TIP3      OH2            -8.6323275641       31.0241793893      -14.2705051955  SOLV      4151            0.0000000000
     12566      4162  TIP3      H1             -9.5519383656       31.3390848062      -14.4050519264  SOLV      4151            0.0000000000
     12567      4162  TIP3      H2             -8.3798500165       31.6329726336      -13.5427026731  SOLV      4151            0.0000000000
     12568      4163  TIP3      OH2            -6.3371215773       31.2150385838      -15.6909709758  SOLV      4152            0.0000000000
     12569      4163  TIP3      H1             -7.2215071968       31.1867933141      -15.2628634403  SOLV      4152            0.0000000000
     12570      4163  TIP3      H2             -6.5636467442       31.5679834721      -16.5776152575  SOLV      4152            0.0000000000
     12571      4164  TIP3      OH2            -2.2717082795       31.4707212360      -17.7225641192  SOLV      4153            0.0000000000
     12572      4164  TIP3      H1             -2.9873020441       31.6501408527      -18.3603830100  SOLV      4153            0.0000000000
     12573      4164  TIP3      H2             -2.1392153430       32.3540730025      -17.3079096350  SOLV      4153            0.0000000000
     12574      4165  TIP3      OH2             0.4224740019       30.9179157386      -17.2279579977  SOLV      4154            0.0000000000
     12575      4165  TIP3      H1             -0.5312842088       31.0449018457      -17.4012923594  SOLV      4154            0.0000000000
     12576      4165  TIP3      H2              0.8054232037       31.6805211982      -17.6802882388  SOLV      4154            0.0000000000
     12577      4166  TIP3      OH2             2.5687906877       32.8518290653      -18.1608005061  SOLV      4155            0.0000000000
     12578      4166  TIP3      H1              2.2860131523       33.5442153793      -18.7749626753  SOLV      4155            0.0000000000
     12579      4166  TIP3      H2              2.8397482612       32.1440059508      -18.7928088608  SOLV      4155            0.0000000000
     12580      4167  TIP3      OH2            -9.7444276681       29.2456901055      -16.7667503406  SOLV      4156            0.0000000000
     12581      4167  TIP3      H1             -9.3788892320       28.9373273095      -15.9072662590  SOLV      4156            0.0000000000
     12582      4167  TIP3      H2             -9.0344344104       28.8934730569      -17.3546613390  SOLV      4156            0.0000000000
     12583      4168  TIP3      OH2            -7.8179139260       28.1039887611      -18.2787049398  SOLV      4157            0.0000000000
     12584      4168  TIP3      H1             -7.6704360756       27.2507944273      -17.8027402863  SOLV      4157            0.0000000000
     12585      4168  TIP3      H2             -6.8987547301       28.4433855679      -18.3267602504  SOLV      4157            0.0000000000
     12586      4169  TIP3      OH2            -5.1334103635       28.9969451536      -18.2135589016  SOLV      4158            0.0000000000
     12587      4169  TIP3      H1             -4.8519305875       28.0629350612      -18.3037186044  SOLV      4158            0.0000000000
     12588      4169  TIP3      H2             -4.6464885258       29.2249387048      -17.3976999142  SOLV      4158            0.0000000000
     12589      4170  TIP3      OH2             0.5191234822       15.5398883111      -17.4746829539  SOLV      4159            0.0000000000
     12590      4170  TIP3      H1              0.1355487311       14.8695762532      -16.8808097891  SOLV      4159            0.0000000000
     12591      4170  TIP3      H2              1.3205303030       15.0939040168      -17.8115304369  SOLV      4159            0.0000000000
     12592      4171  TIP3      OH2             5.7710116491       14.3629499690      -18.3978767630  SOLV      4160            0.0000000000
     12593      4171  TIP3      H1              6.1297293816       14.9135763856      -19.1281439959  SOLV      4160            0.0000000000
     12594      4171  TIP3      H2              4.8287713826       14.6137703193      -18.4098535578  SOLV      4160            0.0000000000
     12595      4172  TIP3      OH2             6.7497127987       15.3758576493      -20.7457625617  SOLV      4161            0.0000000000
     12596      4172  TIP3      H1              7.5028497971       14.8632885389      -21.1074045293  SOLV      4161            0.0000000000
     12597      4172  TIP3      H2              7.0882428043       16.2920924584      -20.8728952218  SOLV      4161            0.0000000000
     12598      4173  TIP3      OH2            -6.9414233359       12.6538197752      -17.2734818723  SOLV      4162            0.0000000000
     12599      4173  TIP3      H1             -7.8643595196       12.3224464010      -17.2071549035  SOLV      4162            0.0000000000
     12600      4173  TIP3      H2             -6.4588223492       11.7998236118      -17.3096771709  SOLV      4162            0.0000000000
     12601      4174  TIP3      OH2            -9.0775156015       11.4135577411      -20.7434192653  SOLV      4163            0.0000000000
     12602      4174  TIP3      H1             -8.7701523598       11.9880647444      -21.4643025874  SOLV      4163            0.0000000000
     12603      4174  TIP3      H2             -9.3173560929       12.0656115968      -20.0531727340  SOLV      4163            0.0000000000
     12604      4175  TIP3      OH2            -2.4674022900       12.9818370600      -18.4158247115  SOLV      4164            0.0000000000
     12605      4175  TIP3      H1             -1.9086206013       13.4702159815      -19.0409454333  SOLV      4164            0.0000000000
     12606      4175  TIP3      H2             -2.2030293399       13.3684967163      -17.5669619152  SOLV      4164            0.0000000000
     12607      4176  TIP3      OH2             2.9225067191       14.4701443879      -18.6115204582  SOLV      4165            0.0000000000
     12608      4176  TIP3      H1              2.9791760924       14.0348987092      -19.4714251201  SOLV      4165            0.0000000000
     12609      4176  TIP3      H2              2.8304243481       13.6923781180      -18.0103513606  SOLV      4165            0.0000000000
     12610      4177  TIP3      OH2             3.2724387281       13.7272710321      -22.9607260635  SOLV      4166            0.0000000000
     12611      4177  TIP3      H1              2.4243541982       14.1626848210      -22.7498702312  SOLV      4166            0.0000000000
     12612      4177  TIP3      H2              3.1430977473       12.8593824832      -22.5202320698  SOLV      4166            0.0000000000
     12613      4178  TIP3      OH2           -11.9074354196       26.9794568426      -23.0246391448  SOLV      4167            0.0000000000
     12614      4178  TIP3      H1            -12.7930440343       26.6440568049      -23.2545866135  SOLV      4167            0.0000000000
     12615      4178  TIP3      H2            -11.9965817717       27.8924628708      -23.3668774019  SOLV      4167            0.0000000000
     12616      4179  TIP3      OH2            -7.8420680861       12.9890209552      -23.1734444248  SOLV      4168            0.0000000000
     12617      4179  TIP3      H1             -7.3753848131       12.3293135026      -23.7223720469  SOLV      4168            0.0000000000
     12618      4179  TIP3      H2             -7.0943529964       13.5039085481      -22.8090057256  SOLV      4168            0.0000000000
     12619      4180  TIP3      OH2            -2.7627638166       14.7650395617      -22.1535994752  SOLV      4169            0.0000000000
     12620      4180  TIP3      H1             -2.1854854161       14.2833099245      -21.5361247792  SOLV      4169            0.0000000000
     12621      4180  TIP3      H2             -2.5486453549       15.6861606929      -21.8835451155  SOLV      4169            0.0000000000
     12622      4181  TIP3      OH2            -4.1178311989       28.9155206541      -27.1087046173  SOLV      4170            0.0000000000
     12623      4181  TIP3      H1             -3.2441150063       29.1352773008      -27.4981204856  SOLV      4170            0.0000000000
     12624      4181  TIP3      H2             -4.3754822644       28.1870539678      -27.7220162947  SOLV      4170            0.0000000000
     12625      4182  TIP3      OH2             3.0719934675       30.1715714478      -26.1877510404  SOLV      4171            0.0000000000
     12626      4182  TIP3      H1              2.9862728079       29.1883460925      -26.2490182371  SOLV      4171            0.0000000000
     12627      4182  TIP3      H2              2.6130551487       30.4404587079      -27.0054331319  SOLV      4171            0.0000000000
     12628      4183  TIP3      OH2            -4.8814816200       15.4779704262       -8.3278941124  SOLV      4172            0.0000000000
     12629      4183  TIP3      H1             -5.2363190073       14.7623098101       -7.7711345376  SOLV      4172            0.0000000000
     12630      4183  TIP3      H2             -3.9396776920       15.4688841215       -8.0443139428  SOLV      4172            0.0000000000
     12631      4184  TIP3      OH2            -2.3791326055       15.4652174003       -7.1515423790  SOLV      4173            0.0000000000
     12632      4184  TIP3      H1             -1.5144296671       15.2808378342       -7.5568990720  SOLV      4173            0.0000000000
     12633      4184  TIP3      H2             -2.4495497182       14.7424953003       -6.4950932391  SOLV      4173            0.0000000000
     12634      4185  TIP3      OH2           -11.0193996088       27.4348351724      -26.4910326803  SOLV      4174            0.0000000000
     12635      4185  TIP3      H1            -10.9958024608       27.3384428654      -25.5316127216  SOLV      4174            0.0000000000
     12636      4185  TIP3      H2            -10.1936669045       26.9661170157      -26.7606568503  SOLV      4174            0.0000000000
     12637      4186  TIP3      OH2             5.9168105587       16.0564218522       -9.2696297389  SOLV      4175            0.0000000000
     12638      4186  TIP3      H1              6.0890107107       15.7630705656       -8.3483505278  SOLV      4175            0.0000000000
     12639      4186  TIP3      H2              6.8156435847       16.0233798078       -9.6580600859  SOLV      4175            0.0000000000
     12640      4187  TIP3      OH2             5.2565147808       31.6315117947      -14.3702468713  SOLV      4176            0.0000000000
     12641      4187  TIP3      H1              4.4801984809       31.3047893346      -14.8686746078  SOLV      4176            0.0000000000
     12642      4187  TIP3      H2              5.0233732739       32.5788592056      -14.2910984876  SOLV      4176            0.0000000000
     12643      4188  TIP3      OH2            17.9738108837       25.3772235070      -26.6753875737  SOLV      4177            0.0000000000
     12644      4188  TIP3      H1             17.6529627404       26.2631875100      -26.9316674161  SOLV      4177            0.0000000000
     12645      4188  TIP3      H2             17.2384978890       24.8162500594      -26.9721837451  SOLV      4177            0.0000000000
     12646      4189  TIP3      OH2            17.8950682074       25.3428933934      -22.8280189112  SOLV      4178            0.0000000000
     12647      4189  TIP3      H1             18.2724491265       25.1103738441      -21.9577200072  SOLV      4178            0.0000000000
     12648      4189  TIP3      H2             17.5157064427       24.4965825280      -23.1145584122  SOLV      4178            0.0000000000
     12649      4190  TIP3      OH2            10.9008352493       24.2444113847      -19.2152762364  SOLV      4179            0.0000000000
     12650      4190  TIP3      H1             11.1811367783       23.5373567123      -18.6035160281  SOLV      4179            0.0000000000
     12651      4190  TIP3      H2             11.7264658513       24.7389872966      -19.3129228721  SOLV      4179            0.0000000000
     12652      4191  TIP3      OH2            20.2850973716       28.2167190512      -25.9848093870  SOLV      4180            0.0000000000
     12653      4191  TIP3      H1             20.2621648523       27.3562798617      -25.5440536589  SOLV      4180            0.0000000000
     12654      4191  TIP3      H2             20.2075652630       28.8206349281      -25.2343259021  SOLV      4180            0.0000000000
     12655      4192  TIP3      OH2            10.6839745477       28.3980531270      -22.0095434442  SOLV      4181            0.0000000000
     12656      4192  TIP3      H1             10.5988402604       27.4197504436      -21.9986859624  SOLV      4181            0.0000000000
     12657      4192  TIP3      H2             11.6493499645       28.4863260773      -22.1101296314  SOLV      4181            0.0000000000
     12658      4193  TIP3      OH2             7.7284817204       20.3743055554      -24.1981911580  SOLV      4182            0.0000000000
     12659      4193  TIP3      H1              7.2517052846       21.1949905505      -23.9829183246  SOLV      4182            0.0000000000
     12660      4193  TIP3      H2              7.0127790239       19.8678675753      -24.6249878111  SOLV      4182            0.0000000000
     12661      4194  TIP3      OH2             8.2816343134       23.2630883590      -22.3445423781  SOLV      4183            0.0000000000
     12662      4194  TIP3      H1              8.7841873516       22.4784713801      -22.0280369429  SOLV      4183            0.0000000000
     12663      4194  TIP3      H2              8.8759037044       23.6218355286      -23.0163015964  SOLV      4183            0.0000000000
     12664      4195  TIP3      OH2            16.3629476484       32.7245556743      -25.8651066288  SOLV      4184            0.0000000000
     12665      4195  TIP3      H1             16.8945058167       32.1518248961      -26.4434800434  SOLV      4184            0.0000000000
     12666      4195  TIP3      H2             17.0258243680       33.0543848350      -25.2435556997  SOLV      4184            0.0000000000
     12667      4196  TIP3      OH2            15.9143659393       27.5849283199      -22.3787549585  SOLV      4185            0.0000000000
     12668      4196  TIP3      H1             16.3188611194       26.8012439789      -22.7906027262  SOLV      4185            0.0000000000
     12669      4196  TIP3      H2             16.7427621372       28.0398935974      -22.1116910370  SOLV      4185            0.0000000000
     12670      4197  TIP3      OH2            26.0604237120       20.7150551354      -22.3791245107  SOLV      4186            0.0000000000
     12671      4197  TIP3      H1             26.3598419485       21.5596616150      -21.9854850686  SOLV      4186            0.0000000000
     12672      4197  TIP3      H2             26.3659287303       20.8120239415      -23.3028361088  SOLV      4186            0.0000000000
     12673      4198  TIP3      OH2            20.0426852827       22.5698596983      -22.0929958117  SOLV      4187            0.0000000000
     12674      4198  TIP3      H1             20.4986117454       21.7265452328      -21.9059648990  SOLV      4187            0.0000000000
     12675      4198  TIP3      H2             19.7035963237       22.3973131378      -22.9930596995  SOLV      4187            0.0000000000
     12676      4199  TIP3      OH2            13.4930745047       19.1897327050      -22.4481810423  SOLV      4188            0.0000000000
     12677      4199  TIP3      H1             13.2733044586       19.9173419444      -23.0671750680  SOLV      4188            0.0000000000
     12678      4199  TIP3      H2             12.9960464239       18.4551314293      -22.8711720557  SOLV      4188            0.0000000000
     12679      4200  TIP3      OH2            20.3857166551       20.1304618551      -26.1630904725  SOLV      4189            0.0000000000
     12680      4200  TIP3      H1             21.0934796160       19.9908982642      -25.4907982702  SOLV      4189            0.0000000000
     12681      4200  TIP3      H2             20.9446985314       20.3862898676      -26.9258502824  SOLV      4189            0.0000000000
     12682      4201  TIP3      OH2             9.7804574478       21.2049440487      -21.3558410747  SOLV      4190            0.0000000000
     12683      4201  TIP3      H1             10.6035721453       21.0169388703      -20.8665357065  SOLV      4190            0.0000000000
     12684      4201  TIP3      H2              9.9278737537       20.6462361908      -22.1498014779  SOLV      4190            0.0000000000
     12685      4202  TIP3      OH2            14.1567711127       23.1835542599      -23.3552656910  SOLV      4191            0.0000000000
     12686      4202  TIP3      H1             15.1041530270       22.9465257979      -23.2638973089  SOLV      4191            0.0000000000
     12687      4202  TIP3      H2             13.7738775248       22.3452745672      -23.6948906172  SOLV      4191            0.0000000000
     12688      4203  TIP3      OH2            26.7896714253       22.8520618307      -20.7040950474  SOLV      4192            0.0000000000
     12689      4203  TIP3      H1             25.9377661217       23.3266347657      -20.7917365405  SOLV      4192            0.0000000000
     12690      4203  TIP3      H2             27.1870323069       23.3155675231      -19.9374864971  SOLV      4192            0.0000000000
     12691      4204  TIP3      OH2            13.4088595330       19.0406124903      -18.0624716146  SOLV      4193            0.0000000000
     12692      4204  TIP3      H1             12.8154835627       19.4022740561      -18.7479743320  SOLV      4193            0.0000000000
     12693      4204  TIP3      H2             12.8623092531       19.1940734568      -17.2636104704  SOLV      4193            0.0000000000
     12694      4205  TIP3      OH2            16.8291387501       27.5463198990      -28.0446869324  SOLV      4194            0.0000000000
     12695      4205  TIP3      H1             16.0436236180       27.1065684360      -28.3928278025  SOLV      4194            0.0000000000
     12696      4205  TIP3      H2             16.4409999525       28.4151623998      -27.8065950393  SOLV      4194            0.0000000000
     12697      4206  TIP3      OH2            14.4944871483       26.7744280918      -20.1629980801  SOLV      4195            0.0000000000
     12698      4206  TIP3      H1             13.9048974626       27.4709674197      -19.7997715290  SOLV      4195            0.0000000000
     12699      4206  TIP3      H2             14.9136263944       27.2372570371      -20.9192514130  SOLV      4195            0.0000000000
     12700      4207  TIP3      OH2            22.4310240048       20.1931437297      -24.4155210183  SOLV      4196            0.0000000000
     12701      4207  TIP3      H1             22.3823984491       19.7090481684      -23.5844384814  SOLV      4196            0.0000000000
     12702      4207  TIP3      H2             22.9776736457       20.9662667740      -24.1714712094  SOLV      4196            0.0000000000
     12703      4208  TIP3      OH2            12.1330191131       20.1678337537      -20.2529984460  SOLV      4197            0.0000000000
     12704      4208  TIP3      H1             12.7484235507       20.8924707500      -19.9998393074  SOLV      4197            0.0000000000
     12705      4208  TIP3      H2             12.6315821449       19.7748738407      -21.0052358165  SOLV      4197            0.0000000000
     12706      4209  TIP3      OH2            12.8166283469       28.7526114050      -19.1072323620  SOLV      4198            0.0000000000
     12707      4209  TIP3      H1             12.5556665709       29.6191738144      -19.4810550787  SOLV      4198            0.0000000000
     12708      4209  TIP3      H2             12.0071816382       28.5567368281      -18.5892272411  SOLV      4198            0.0000000000
     12709      4210  TIP3      OH2             6.6397578531       25.6160331407      -26.7694314041  SOLV      4199            0.0000000000
     12710      4210  TIP3      H1              6.2868921901       25.8332421935      -27.6587190744  SOLV      4199            0.0000000000
     12711      4210  TIP3      H2              6.9897351532       26.4772219280      -26.4706268728  SOLV      4199            0.0000000000
     12712      4211  TIP3      OH2            21.1690012509       30.3414589310      -24.0339457595  SOLV      4200            0.0000000000
     12713      4211  TIP3      H1             20.2618473140       30.3396679287      -23.6454681002  SOLV      4200            0.0000000000
     12714      4211  TIP3      H2             21.5210065222       31.1327214502      -23.6066806647  SOLV      4200            0.0000000000
     12715      4212  TIP3      OH2            23.9798112453       19.7272290541      -20.7713428171  SOLV      4201            0.0000000000
     12716      4212  TIP3      H1             23.1376534121       20.0359464249      -21.1408210277  SOLV      4201            0.0000000000
     12717      4212  TIP3      H2             24.6328007814       20.0696848579      -21.4201346493  SOLV      4201            0.0000000000
     12718      4213  TIP3      OH2            16.9097529854       16.1637568903      -20.9073961666  SOLV      4202            0.0000000000
     12719      4213  TIP3      H1             16.7450463208       15.2182134700      -20.7236743340  SOLV      4202            0.0000000000
     12720      4213  TIP3      H2             16.1436535481       16.5677647183      -20.4429864864  SOLV      4202            0.0000000000
     12721      4214  TIP3      OH2            17.9048372058       31.2814051535      -27.7672900832  SOLV      4203            0.0000000000
     12722      4214  TIP3      H1             18.5414329188       30.5368182023      -27.8010280542  SOLV      4203            0.0000000000
     12723      4214  TIP3      H2             18.5205204995       32.0037236722      -27.9559431655  SOLV      4203            0.0000000000
     12724      4215  TIP3      OH2            19.5812410540       29.0320970945      -28.5506183157  SOLV      4204            0.0000000000
     12725      4215  TIP3      H1             18.9060609055       28.3401907242      -28.5932426432  SOLV      4204            0.0000000000
     12726      4215  TIP3      H2             20.0188478082       28.8107217779      -27.7013120755  SOLV      4204            0.0000000000
     12727      4216  TIP3      OH2            23.4864369560       29.7836021180      -21.6191650315  SOLV      4205            0.0000000000
     12728      4216  TIP3      H1             23.0670929382       28.9243727608      -21.8307810661  SOLV      4205            0.0000000000
     12729      4216  TIP3      H2             22.9903867933       30.3858131875      -22.1797133931  SOLV      4205            0.0000000000
     12730      4217  TIP3      OH2            16.4505094197       23.7894920610      -28.4051632824  SOLV      4206            0.0000000000
     12731      4217  TIP3      H1             15.5699506196       24.2285964516      -28.4736288313  SOLV      4206            0.0000000000
     12732      4217  TIP3      H2             16.9055098332       24.1380509077      -29.1822483022  SOLV      4206            0.0000000000
     12733      4218  TIP3      OH2            25.1756229139       26.0143910652      -22.5935138404  SOLV      4207            0.0000000000
     12734      4218  TIP3      H1             24.3761040093       26.5803812588      -22.5936238220  SOLV      4207            0.0000000000
     12735      4218  TIP3      H2             25.8341088991       26.6683011286      -22.8903311221  SOLV      4207            0.0000000000
     12736      4219  TIP3      OH2            19.5221600370       24.1169538028      -28.6755471227  SOLV      4208            0.0000000000
     12737      4219  TIP3      H1             19.0403881496       24.6250558060      -27.9933365218  SOLV      4208            0.0000000000
     12738      4219  TIP3      H2             20.4198028642       24.1299276270      -28.2941963585  SOLV      4208            0.0000000000
     12739      4220  TIP3      OH2            22.0475751761       25.1622302368      -19.5181503227  SOLV      4209            0.0000000000
     12740      4220  TIP3      H1             22.1193774615       26.1072172969      -19.2987145355  SOLV      4209            0.0000000000
     12741      4220  TIP3      H2             21.1511441176       25.1479503983      -19.9062480892  SOLV      4209            0.0000000000
     12742      4221  TIP3      OH2            12.0367916819       24.6204698716      -24.4735726486  SOLV      4210            0.0000000000
     12743      4221  TIP3      H1             11.6500780295       24.0473479867      -25.1690305378  SOLV      4210            0.0000000000
     12744      4221  TIP3      H2             12.8014213269       24.0878965719      -24.1692049919  SOLV      4210            0.0000000000
     12745      4222  TIP3      OH2            13.3471826468       28.7609304184      -23.0114054261  SOLV      4211            0.0000000000
     12746      4222  TIP3      H1             13.1242148005       28.4634013857      -23.9091237029  SOLV      4211            0.0000000000
     12747      4222  TIP3      H2             14.2235337013       28.3484390779      -22.8643613099  SOLV      4211            0.0000000000
     12748      4223  TIP3      OH2            13.3831779472       24.3536395769      -20.9264306169  SOLV      4212            0.0000000000
     12749      4223  TIP3      H1             13.7101079994       24.0821774895      -21.8107248153  SOLV      4212            0.0000000000
     12750      4223  TIP3      H2             13.8441678412       25.2059107778      -20.7765081844  SOLV      4212            0.0000000000
     12751      4224  TIP3      OH2            18.7656986383       30.7397786111      -22.9662243784  SOLV      4213            0.0000000000
     12752      4224  TIP3      H1             18.5156916383       31.5334387363      -22.4585115872  SOLV      4213            0.0000000000
     12753      4224  TIP3      H2             18.4449973283       30.0003359710      -22.4121024060  SOLV      4213            0.0000000000
     12754      4225  TIP3      OH2            14.7902616296       29.9983003793      -17.6434323064  SOLV      4214            0.0000000000
     12755      4225  TIP3      H1             14.0954686826       30.5377569891      -17.2098690919  SOLV      4214            0.0000000000
     12756      4225  TIP3      H2             14.2238716703       29.3964824003      -18.1741100844  SOLV      4214            0.0000000000
     12757      4226  TIP3      OH2            12.3643887620       25.4545646686      -16.6151321163  SOLV      4215            0.0000000000
     12758      4226  TIP3      H1             12.3952658161       26.3475567041      -16.2192293199  SOLV      4215            0.0000000000
     12759      4226  TIP3      H2             11.4166653653       25.2412727490      -16.4902491608  SOLV      4215            0.0000000000
     12760      4227  TIP3      OH2            15.5300278365       29.9481994837      -27.7983092494  SOLV      4216            0.0000000000
     12761      4227  TIP3      H1             16.3672157175       30.4612427948      -27.8089730176  SOLV      4216            0.0000000000
     12762      4227  TIP3      H2             14.9130379775       30.5801383899      -27.4113802007  SOLV      4216            0.0000000000
     12763      4228  TIP3      OH2            12.6903284874       31.6257175736      -16.7698332467  SOLV      4217            0.0000000000
     12764      4228  TIP3      H1             12.3580887399       31.6226754475      -17.6898593855  SOLV      4217            0.0000000000
     12765      4228  TIP3      H2             11.8970248994       31.3452287099      -16.2597019831  SOLV      4217            0.0000000000
     12766      4229  TIP3      OH2            23.1758529474       15.4470229196      -29.8935614697  SOLV      4218            0.0000000000
     12767      4229  TIP3      H1             22.4090660749       15.7697770910      -29.3762643222  SOLV      4218            0.0000000000
     12768      4229  TIP3      H2             23.5681764332       16.2919017957      -30.2066070217  SOLV      4218            0.0000000000
     12769      4230  TIP3      OH2            10.7594748641       23.0861384106      -26.5173635947  SOLV      4219            0.0000000000
     12770      4230  TIP3      H1             10.0252979607       23.5153138908      -27.0086705450  SOLV      4219            0.0000000000
     12771      4230  TIP3      H2             10.4010914315       22.2039922759      -26.3680684914  SOLV      4219            0.0000000000
     12772      4231  TIP3      OH2             8.5293303508       26.9260187573      -17.3684921817  SOLV      4220            0.0000000000
     12773      4231  TIP3      H1              7.8421844854       26.7218298884      -18.0363598588  SOLV      4220            0.0000000000
     12774      4231  TIP3      H2              8.9053440532       26.0448280615      -17.1678637271  SOLV      4220            0.0000000000
     12775      4232  TIP3      OH2             7.0725714756       28.8398297533      -21.0787821641  SOLV      4221            0.0000000000
     12776      4232  TIP3      H1              8.0352523261       28.7767759509      -21.1460706200  SOLV      4221            0.0000000000
     12777      4232  TIP3      H2              6.9740464955       29.6137442053      -20.5042823568  SOLV      4221            0.0000000000
     12778      4233  TIP3      OH2            16.7653356530       31.1865170657      -19.1058158593  SOLV      4222            0.0000000000
     12779      4233  TIP3      H1             16.6712775299       32.1177568581      -18.8279648079  SOLV      4222            0.0000000000
     12780      4233  TIP3      H2             16.0313691119       30.7622224858      -18.6050437890  SOLV      4222            0.0000000000
     12781      4234  TIP3      OH2             8.7597198266       31.0574021037      -25.7587393511  SOLV      4223            0.0000000000
     12782      4234  TIP3      H1              9.2175139371       30.9927078118      -24.8913044311  SOLV      4223            0.0000000000
     12783      4234  TIP3      H2              8.3148326983       30.1914334065      -25.7895795350  SOLV      4223            0.0000000000
     12784      4235  TIP3      OH2            24.7364314471       24.6880199432      -17.7620591997  SOLV      4224            0.0000000000
     12785      4235  TIP3      H1             23.9073292775       24.8693858774      -18.2203149397  SOLV      4224            0.0000000000
     12786      4235  TIP3      H2             24.8527824213       23.7259315792      -17.8895028843  SOLV      4224            0.0000000000
     12787      4236  TIP3      OH2            10.5581630529       28.7737181004      -17.5135309463  SOLV      4225            0.0000000000
     12788      4236  TIP3      H1             11.0489390865       28.5689772062      -16.6914011605  SOLV      4225            0.0000000000
     12789      4236  TIP3      H2              9.8170990955       28.1325837854      -17.4617708527  SOLV      4225            0.0000000000
     12790      4237  TIP3      OH2            14.5573491312       16.9725472070      -19.6078481015  SOLV      4226            0.0000000000
     12791      4237  TIP3      H1             13.6805332692       16.6641949766      -19.9199716480  SOLV      4226            0.0000000000
     12792      4237  TIP3      H2             14.2761059055       17.7664196747      -19.1108882148  SOLV      4226            0.0000000000
     12793      4238  TIP3      OH2            19.9425672037       18.1549117321      -17.6528571575  SOLV      4227            0.0000000000
     12794      4238  TIP3      H1             20.6347243776       17.7886094321      -17.0622192320  SOLV      4227            0.0000000000
     12795      4238  TIP3      H2             19.1126870230       17.9011060900      -17.1985074075  SOLV      4227            0.0000000000
     12796      4239  TIP3      OH2            22.1776121543       22.4292926801      -18.4949456090  SOLV      4228            0.0000000000
     12797      4239  TIP3      H1             21.6899423737       22.5678739663      -17.6659273179  SOLV      4228            0.0000000000
     12798      4239  TIP3      H2             22.1123643616       23.3048389219      -18.9217028821  SOLV      4228            0.0000000000
     12799      4240  TIP3      OH2            15.7943564069       17.5837123204      -30.2298660270  SOLV      4229            0.0000000000
     12800      4240  TIP3      H1             15.5946267339       17.6123595281      -29.2731484874  SOLV      4229            0.0000000000
     12801      4240  TIP3      H2             15.4434081815       16.6917637428      -30.4283387206  SOLV      4229            0.0000000000
     12802      4241  TIP3      OH2            13.8882767572       22.1361716755      -19.4441998737  SOLV      4230            0.0000000000
     12803      4241  TIP3      H1             13.3994432122       22.3445346113      -18.6207345067  SOLV      4230            0.0000000000
     12804      4241  TIP3      H2             13.7268160543       22.9567657739      -19.9623610128  SOLV      4230            0.0000000000
     12805      4242  TIP3      OH2            12.7092895897       21.0213266506      -24.2825118060  SOLV      4231            0.0000000000
     12806      4242  TIP3      H1             11.7853582794       20.7487294094      -24.0951086704  SOLV      4231            0.0000000000
     12807      4242  TIP3      H2             12.8343712776       20.5945773574      -25.1616829069  SOLV      4231            0.0000000000
     12808      4243  TIP3      OH2            17.6693060402       21.7877568918      -27.0228468972  SOLV      4232            0.0000000000
     12809      4243  TIP3      H1             17.1920703541       22.5124442525      -27.4870594730  SOLV      4232            0.0000000000
     12810      4243  TIP3      H2             18.2705138029       21.5059169881      -27.7400349643  SOLV      4232            0.0000000000
     12811      4244  TIP3      OH2            19.1602119784       22.1084903809      -24.6438546604  SOLV      4233            0.0000000000
     12812      4244  TIP3      H1             18.5462912410       22.3783813958      -25.3572379098  SOLV      4233            0.0000000000
     12813      4244  TIP3      H2             19.5442825019       21.3253704870      -25.0963825477  SOLV      4233            0.0000000000
     12814      4245  TIP3      OH2            12.0440958727       22.3905575621      -17.3888738007  SOLV      4234            0.0000000000
     12815      4245  TIP3      H1             12.3341014404       23.0280524705      -16.7203440312  SOLV      4234            0.0000000000
     12816      4245  TIP3      H2             11.9236470366       21.5757893506      -16.8620205860  SOLV      4234            0.0000000000
     12817      4246  TIP3      OH2            12.3631209864       16.8315773795      -30.1179553990  SOLV      4235            0.0000000000
     12818      4246  TIP3      H1             12.2833631951       17.0526926490      -29.1702814156  SOLV      4235            0.0000000000
     12819      4246  TIP3      H2             11.9990127492       17.6236149457      -30.5444549973  SOLV      4235            0.0000000000
     12820      4247  TIP3      OH2             8.0188058926       17.6028369866      -21.5637983135  SOLV      4236            0.0000000000
     12821      4247  TIP3      H1              8.7464665373       17.9462583233      -21.0053343054  SOLV      4236            0.0000000000
     12822      4247  TIP3      H2              8.4672819915       17.3188105887      -22.3717028798  SOLV      4236            0.0000000000
     12823      4248  TIP3      OH2             7.6237792053       17.4179017001      -26.3763797749  SOLV      4237            0.0000000000
     12824      4248  TIP3      H1              8.1087833222       17.7725134903      -27.1511397054  SOLV      4237            0.0000000000
     12825      4248  TIP3      H2              7.0297419645       18.1716996971      -26.1974365882  SOLV      4237            0.0000000000
     12826      4249  TIP3      OH2            19.2482334607       24.5577416319      -20.4702458287  SOLV      4238            0.0000000000
     12827      4249  TIP3      H1             19.6117720270       23.8663270485      -21.0722570489  SOLV      4238            0.0000000000
     12828      4249  TIP3      H2             18.9455903228       23.9883488724      -19.7300772607  SOLV      4238            0.0000000000
     12829      4250  TIP3      OH2            16.0642689145       19.1980887188      -23.7119486233  SOLV      4239            0.0000000000
     12830      4250  TIP3      H1             15.2479993193       19.1968484607      -23.1724328705  SOLV      4239            0.0000000000
     12831      4250  TIP3      H2             16.7570213813       19.1245125061      -23.0335678533  SOLV      4239            0.0000000000
     12832      4251  TIP3      OH2            10.3372813161       19.7901783320      -23.6409227562  SOLV      4240            0.0000000000
     12833      4251  TIP3      H1              9.3965229460       19.8660015010      -23.9307128754  SOLV      4240            0.0000000000
     12834      4251  TIP3      H2             10.5601194655       18.8663175908      -23.8574433640  SOLV      4240            0.0000000000
     12835      4252  TIP3      OH2            12.9827822065       19.7094110577      -26.6377530272  SOLV      4241            0.0000000000
     12836      4252  TIP3      H1             13.9098027104       19.8663472239      -26.9021004547  SOLV      4241            0.0000000000
     12837      4252  TIP3      H2             12.4718521285       19.8834049735      -27.4631089633  SOLV      4241            0.0000000000
     12838      4253  TIP3      OH2            20.8741998074       19.9865071117      -21.5943103795  SOLV      4242            0.0000000000
     12839      4253  TIP3      H1             20.4698398784       20.1026247547      -20.7121910387  SOLV      4242            0.0000000000
     12840      4253  TIP3      H2             20.2461355904       19.3691907354      -22.0069920358  SOLV      4242            0.0000000000
     12841      4254  TIP3      OH2            11.3367311079       19.9092997792      -28.7683368086  SOLV      4243            0.0000000000
     12842      4254  TIP3      H1             10.5427947829       19.5117912320      -29.1615030249  SOLV      4243            0.0000000000
     12843      4254  TIP3      H2             11.7668981184       20.2767438571      -29.5687654788  SOLV      4243            0.0000000000
     12844      4255  TIP3      OH2            12.1746857679       27.9999390868      -15.3105310742  SOLV      4244            0.0000000000
     12845      4255  TIP3      H1             12.9587079046       28.3467484658      -14.8389091874  SOLV      4244            0.0000000000
     12846      4255  TIP3      H2             11.5424148999       27.9145893324      -14.5679013684  SOLV      4244            0.0000000000
     12847      4256  TIP3      OH2            16.8118055138       22.5244529463      -22.7390365219  SOLV      4245            0.0000000000
     12848      4256  TIP3      H1             17.5410198139       22.1323345531      -23.2441670959  SOLV      4245            0.0000000000
     12849      4256  TIP3      H2             16.8476791498       22.0321651300      -21.8986670086  SOLV      4245            0.0000000000
     12850      4257  TIP3      OH2            11.9930029520       17.3635242265      -23.8796580616  SOLV      4246            0.0000000000
     12851      4257  TIP3      H1             11.6254065460       16.6049390231      -23.3740238504  SOLV      4246            0.0000000000
     12852      4257  TIP3      H2             12.3950207906       16.9133893689      -24.6349103109  SOLV      4246            0.0000000000
     12853      4258  TIP3      OH2            16.5463577663       21.4713665282      -19.8688816832  SOLV      4247            0.0000000000
     12854      4258  TIP3      H1             15.6340439469       21.8032715939      -19.7310623222  SOLV      4247            0.0000000000
     12855      4258  TIP3      H2             17.0913844993       22.1317863424      -19.4035121663  SOLV      4247            0.0000000000
     12856      4259  TIP3      OH2            14.1749516354       25.1954767786      -28.6167419542  SOLV      4248            0.0000000000
     12857      4259  TIP3      H1             13.3446089398       24.9113036997      -29.0369538101  SOLV      4248            0.0000000000
     12858      4259  TIP3      H2             13.8329174957       25.6315535584      -27.8009188864  SOLV      4248            0.0000000000
     12859      4260  TIP3      OH2            22.8058367559       27.4845695689      -22.8984602581  SOLV      4249            0.0000000000
     12860      4260  TIP3      H1             22.7405894147       27.6966814670      -23.8383761715  SOLV      4249            0.0000000000
     12861      4260  TIP3      H2             21.9283443738       27.0610871181      -22.7777842927  SOLV      4249            0.0000000000
     12862      4261  TIP3      OH2            18.4201007298       18.4750868557      -29.6933958735  SOLV      4250            0.0000000000
     12863      4261  TIP3      H1             17.6110232068       18.1581866525      -30.1379771960  SOLV      4250            0.0000000000
     12864      4261  TIP3      H2             18.5267232370       19.3774388177      -30.0323698290  SOLV      4250            0.0000000000
     12865      4262  TIP3      OH2            17.7960179658       28.5505181252      -18.8695029535  SOLV      4251            0.0000000000
     12866      4262  TIP3      H1             18.4354872946       28.5392305626      -18.1461028912  SOLV      4251            0.0000000000
     12867      4262  TIP3      H2             17.5346642690       29.4874714732      -18.9125808834  SOLV      4251            0.0000000000
     12868      4263  TIP3      OH2            19.3410470036       21.2880765852      -29.2647386834  SOLV      4252            0.0000000000
     12869      4263  TIP3      H1             20.1313345983       20.8051518530      -28.9587973105  SOLV      4252            0.0000000000
     12870      4263  TIP3      H2             19.6748600387       22.2073494270      -29.2802817938  SOLV      4252            0.0000000000
     12871      4264  TIP3      OH2            10.8965468192       25.6350819479      -22.1536259852  SOLV      4253            0.0000000000
     12872      4264  TIP3      H1             11.2610826385       25.3249054110      -23.0082255498  SOLV      4253            0.0000000000
     12873      4264  TIP3      H2             11.3275657867       25.0349392668      -21.5270039295  SOLV      4253            0.0000000000
     12874      4265  TIP3      OH2             9.7093960042       24.7652943589      -15.9987744579  SOLV      4254            0.0000000000
     12875      4265  TIP3      H1              9.8007044778       24.5799042309      -15.0436512359  SOLV      4254            0.0000000000
     12876      4265  TIP3      H2              8.9977564956       24.1439009061      -16.2389198646  SOLV      4254            0.0000000000
     12877      4266  TIP3      OH2            19.6377251695       31.0272602254      -19.7739982826  SOLV      4255            0.0000000000
     12878      4266  TIP3      H1             18.6784036368       31.1739576672      -19.7377773368  SOLV      4255            0.0000000000
     12879      4266  TIP3      H2             19.9454911847       31.5106406920      -18.9821787775  SOLV      4255            0.0000000000
     12880      4267  TIP3      OH2            20.4435331972       26.3147731771      -23.4707759679  SOLV      4256            0.0000000000
     12881      4267  TIP3      H1             19.5051534059       26.0775381405      -23.3270707858  SOLV      4256            0.0000000000
     12882      4267  TIP3      H2             20.7896421593       25.4845884075      -23.8620782835  SOLV      4256            0.0000000000
     12883      4268  TIP3      OH2            11.8981839946       28.6796578253      -25.7762996077  SOLV      4257            0.0000000000
     12884      4268  TIP3      H1             11.7998176354       29.4399217413      -26.3847099131  SOLV      4257            0.0000000000
     12885      4268  TIP3      H2             11.0050488449       28.3149383384      -25.7980213499  SOLV      4257            0.0000000000
     12886      4269  TIP3      OH2             7.5469844232       21.6710905547      -28.8002548227  SOLV      4258            0.0000000000
     12887      4269  TIP3      H1              7.9923649544       22.5135801696      -28.5653226406  SOLV      4258            0.0000000000
     12888      4269  TIP3      H2              6.7507172890       21.7219418415      -28.2246970095  SOLV      4258            0.0000000000
     12889      4270  TIP3      OH2            13.2586619318       26.3321904048      -26.3312084691  SOLV      4259            0.0000000000
     12890      4270  TIP3      H1             12.8543834517       27.2097047695      -26.1878499179  SOLV      4259            0.0000000000
     12891      4270  TIP3      H2             12.8419724421       25.8040650123      -25.6255071363  SOLV      4259            0.0000000000
     12892      4271  TIP3      OH2            14.5975935586       32.0551882432      -21.1858471961  SOLV      4260            0.0000000000
     12893      4271  TIP3      H1             14.9727403770       32.7952542857      -21.7140579141  SOLV      4260            0.0000000000
     12894      4271  TIP3      H2             15.4041107572       31.6241398780      -20.8679240026  SOLV      4260            0.0000000000
     12895      4272  TIP3      OH2            11.0420684593       30.8740577198      -27.3733445431  SOLV      4261            0.0000000000
     12896      4272  TIP3      H1             10.1954355669       31.0048552609      -26.8997872083  SOLV      4261            0.0000000000
     12897      4272  TIP3      H2             11.4048342406       31.7890933658      -27.3258984173  SOLV      4261            0.0000000000
     12898      4273  TIP3      OH2            18.4063735083       28.3828379020      -21.5548319555  SOLV      4262            0.0000000000
     12899      4273  TIP3      H1             18.2772135069       28.3320573131      -20.5839724232  SOLV      4262            0.0000000000
     12900      4273  TIP3      H2             19.2875803668       27.9853707682      -21.6408401627  SOLV      4262            0.0000000000
     12901      4274  TIP3      OH2            11.7444535165       19.8534485847      -15.9496195683  SOLV      4263            0.0000000000
     12902      4274  TIP3      H1             10.7731230047       19.9040044493      -15.8421252732  SOLV      4263            0.0000000000
     12903      4274  TIP3      H2             11.9909595800       19.2700356537      -15.2141526350  SOLV      4263            0.0000000000
     12904      4275  TIP3      OH2             8.9553992907       30.6267206583      -19.6124475581  SOLV      4264            0.0000000000
     12905      4275  TIP3      H1              9.5309845442       29.9710218611      -19.1829406844  SOLV      4264            0.0000000000
     12906      4275  TIP3      H2              9.1906924797       31.4393643864      -19.1377782595  SOLV      4264            0.0000000000
     12907      4276  TIP3      OH2            10.9470781443       27.3195345259      -29.4032181681  SOLV      4265            0.0000000000
     12908      4276  TIP3      H1             11.6803338592       26.8783859039      -29.8732622296  SOLV      4265            0.0000000000
     12909      4276  TIP3      H2             11.0764848106       28.2540204924      -29.6516267181  SOLV      4265            0.0000000000
     12910      4277  TIP3      OH2             8.6318634459       24.1033942508      -27.9764772058  SOLV      4266            0.0000000000
     12911      4277  TIP3      H1              7.9615531075       24.5797370080      -27.4428707064  SOLV      4266            0.0000000000
     12912      4277  TIP3      H2              8.7782351294       24.7516829614      -28.6917783279  SOLV      4266            0.0000000000
     12913      4278  TIP3      OH2            20.1112327589       20.5776652538      -18.9358313967  SOLV      4267            0.0000000000
     12914      4278  TIP3      H1             21.0306905817       20.8830103904      -18.8174705928  SOLV      4267            0.0000000000
     12915      4278  TIP3      H2             20.0994066184       19.7103991106      -18.4704230232  SOLV      4267            0.0000000000
     12916      4279  TIP3      OH2            19.0231840021       17.8774015040      -27.1546048223  SOLV      4268            0.0000000000
     12917      4279  TIP3      H1             18.7910749549       18.0819244329      -28.0946366205  SOLV      4268            0.0000000000
     12918      4279  TIP3      H2             19.3856195010       18.7386749052      -26.8578668239  SOLV      4268            0.0000000000
     12919      4280  TIP3      OH2            15.8041965303       19.8301275940      -26.4059397287  SOLV      4269            0.0000000000
     12920      4280  TIP3      H1             16.4619611018       20.5375357137      -26.5845166089  SOLV      4269            0.0000000000
     12921      4280  TIP3      H2             15.8898035062       19.7296816185      -25.4336857105  SOLV      4269            0.0000000000
     12922      4281  TIP3      OH2            18.6090177527       22.8362887611      -18.4786131675  SOLV      4270            0.0000000000
     12923      4281  TIP3      H1             18.5907080362       22.8967924989      -17.5168340683  SOLV      4270            0.0000000000
     12924      4281  TIP3      H2             19.0751554634       21.9819857619      -18.6331256836  SOLV      4270            0.0000000000
     12925      4282  TIP3      OH2            17.1889778263       16.9590087749      -25.3522045288  SOLV      4271            0.0000000000
     12926      4282  TIP3      H1             17.1158032564       17.7571547766      -24.7965889926  SOLV      4271            0.0000000000
     12927      4282  TIP3      H2             17.8683700271       17.2625721592      -26.0026068120  SOLV      4271            0.0000000000
     12928      4283  TIP3      OH2            11.0994668138       30.0926603173      -29.9916166723  SOLV      4272            0.0000000000
     12929      4283  TIP3      H1             11.3740129330       30.9634558233      -30.2933991392  SOLV      4272            0.0000000000
     12930      4283  TIP3      H2             11.0678287096       30.2371610346      -29.0202834586  SOLV      4272            0.0000000000
     12931      4284  TIP3      OH2            12.4076055464       17.0818338704      -27.3416307028  SOLV      4273            0.0000000000
     12932      4284  TIP3      H1             12.3936436343       17.9899895186      -26.9771723410  SOLV      4273            0.0000000000
     12933      4284  TIP3      H2             13.3736520862       16.9225991457      -27.3417886286  SOLV      4273            0.0000000000
     12934      4285  TIP3      OH2            24.8962076711       21.9807631210      -18.4579907957  SOLV      4274            0.0000000000
     12935      4285  TIP3      H1             23.9215922442       21.9009175337      -18.5017244042  SOLV      4274            0.0000000000
     12936      4285  TIP3      H2             25.1517487776       21.7293072317      -19.3554774767  SOLV      4274            0.0000000000
     12937      4286  TIP3      OH2            21.4040592303       23.9367085628      -24.5465002044  SOLV      4275            0.0000000000
     12938      4286  TIP3      H1             20.6712785894       23.3069545735      -24.4293656401  SOLV      4275            0.0000000000
     12939      4286  TIP3      H2             22.1461054208       23.4786624581      -24.0932495778  SOLV      4275            0.0000000000
     12940      4287  TIP3      OH2             8.5280002887       26.1705470466      -29.9776650389  SOLV      4276            0.0000000000
     12941      4287  TIP3      H1              9.3210277165       26.6823885606      -29.6936974949  SOLV      4276            0.0000000000
     12942      4287  TIP3      H2              8.9569681733       25.5571496286      -30.6145612413  SOLV      4276            0.0000000000
     12943      4288  TIP3      OH2             8.0359398408       18.9887720021      -28.5964182755  SOLV      4277            0.0000000000
     12944      4288  TIP3      H1              7.9920694206       19.9662319402      -28.5739568316  SOLV      4277            0.0000000000
     12945      4288  TIP3      H2              7.2256452900       18.7642117009      -29.0694297690  SOLV      4277            0.0000000000
     12946      4289  TIP3      OH2            11.9122185670       16.1707009281      -19.9213880484  SOLV      4278            0.0000000000
     12947      4289  TIP3      H1             11.6100685890       15.8143155402      -20.7834933438  SOLV      4278            0.0000000000
     12948      4289  TIP3      H2             11.8066008041       15.3951594115      -19.3328630107  SOLV      4278            0.0000000000
     12949      4290  TIP3      OH2             7.3609657535       28.3862257866      -26.0698155295  SOLV      4279            0.0000000000
     12950      4290  TIP3      H1              6.6930390783       28.6558986652      -25.4257875280  SOLV      4279            0.0000000000
     12951      4290  TIP3      H2              6.9913758971       28.7736460987      -26.8997238019  SOLV      4279            0.0000000000
     12952      4291  TIP3      OH2             8.8519551167       33.6213600734      -15.1541155786  SOLV      4280            0.0000000000
     12953      4291  TIP3      H1              9.6786971715       33.5381153460      -14.6444265541  SOLV      4280            0.0000000000
     12954      4291  TIP3      H2              8.5525650977       32.6943841384      -15.1883071847  SOLV      4280            0.0000000000
     12955      4292  TIP3      OH2            13.9069182491       33.3392982060      -14.9518847855  SOLV      4281            0.0000000000
     12956      4292  TIP3      H1             14.7163341858       32.8097244233      -15.0719107514  SOLV      4281            0.0000000000
     12957      4292  TIP3      H2             13.3281140832       32.8745866674      -15.5942141031  SOLV      4281            0.0000000000
     12958      4293  TIP3      OH2            20.3110467422       32.3202554683      -17.3923022360  SOLV      4282            0.0000000000
     12959      4293  TIP3      H1             19.7588709335       31.7558596971      -16.8084146130  SOLV      4282            0.0000000000
     12960      4293  TIP3      H2             21.1364020648       32.2644098815      -16.8673381879  SOLV      4282            0.0000000000
     12961      4294  TIP3      OH2            10.1614436822       27.7806919728      -13.4023719331  SOLV      4283            0.0000000000
     12962      4294  TIP3      H1             10.3211165999       26.8168301876      -13.3404843286  SOLV      4283            0.0000000000
     12963      4294  TIP3      H2              9.2880115029       27.8090615749      -13.8491470826  SOLV      4283            0.0000000000
     12964      4295  TIP3      OH2            10.0960345488       24.3694471013      -31.2165014293  SOLV      4284            0.0000000000
     12965      4295  TIP3      H1             10.7778375308       24.1337765883      -30.5508729087  SOLV      4284            0.0000000000
     12966      4295  TIP3      H2             10.6399011094       24.6747718413      -31.9483981559  SOLV      4284            0.0000000000
     12967      4296  TIP3      OH2            16.2010979362       28.5535274400      -15.7849474323  SOLV      4285            0.0000000000
     12968      4296  TIP3      H1             15.7848842300       29.0027861599      -16.5492627043  SOLV      4285            0.0000000000
     12969      4296  TIP3      H2             16.6983304688       27.8453735043      -16.2114158191  SOLV      4285            0.0000000000
     12970      4297  TIP3      OH2            21.0992119549       28.6075763723      -20.0312538125  SOLV      4286            0.0000000000
     12971      4297  TIP3      H1             21.9916510874       28.9139110181      -19.8213776166  SOLV      4286            0.0000000000
     12972      4297  TIP3      H2             20.5889861143       29.4395547435      -19.9778914436  SOLV      4286            0.0000000000
     12973      4298  TIP3      OH2            11.3821672981       25.2574156057      -13.4885537732  SOLV      4287            0.0000000000
     12974      4298  TIP3      H1             12.0607239059       24.6148604736      -13.7179083249  SOLV      4287            0.0000000000
     12975      4298  TIP3      H2             11.6951258569       25.5849601861      -12.6189829950  SOLV      4287            0.0000000000
     12976      4299  TIP3      OH2            11.9103120321       23.3470681052      -29.3114659818  SOLV      4288            0.0000000000
     12977      4299  TIP3      H1             11.6919353625       23.1542896170      -28.3843373839  SOLV      4288            0.0000000000
     12978      4299  TIP3      H2             12.1710901300       22.4731267143      -29.6529814652  SOLV      4288            0.0000000000
     12979      4300  TIP3      OH2            14.6746648200       23.9564446962      -16.9509003764  SOLV      4289            0.0000000000
     12980      4300  TIP3      H1             13.9234622326       24.5859887976      -16.9291033746  SOLV      4289            0.0000000000
     12981      4300  TIP3      H2             15.2966595824       24.4211961257      -17.5589161112  SOLV      4289            0.0000000000
     12982      4301  TIP3      OH2            12.7346186399       21.0119677332      -30.8216154413  SOLV      4290            0.0000000000
     12983      4301  TIP3      H1             12.5987518823       20.4086643953      -31.5679351734  SOLV      4290            0.0000000000
     12984      4301  TIP3      H2             13.4831477504       21.5567475172      -31.1418926485  SOLV      4290            0.0000000000
     12985      4302  TIP3      OH2            20.0773025592       27.8954768322      -15.5653583244  SOLV      4291            0.0000000000
     12986      4302  TIP3      H1             20.7272229910       27.9108377330      -16.2961536906  SOLV      4291            0.0000000000
     12987      4302  TIP3      H2             20.7433236167       27.8558838686      -14.8611154572  SOLV      4291            0.0000000000
     12988      4303  TIP3      OH2            16.2069028798       22.0692326485      -15.7875958064  SOLV      4292            0.0000000000
     12989      4303  TIP3      H1             16.1143917893       21.2276409088      -16.2805973935  SOLV      4292            0.0000000000
     12990      4303  TIP3      H2             15.6211320304       22.6669228410      -16.3106155579  SOLV      4292            0.0000000000
     12991      4304  TIP3      OH2            15.9883169313       19.8304550882      -17.5571926338  SOLV      4293            0.0000000000
     12992      4304  TIP3      H1             16.2479865401       20.2119585203      -18.4175148177  SOLV      4293            0.0000000000
     12993      4304  TIP3      H2             15.0533385856       19.5836283045      -17.7314961590  SOLV      4293            0.0000000000
     12994      4305  TIP3      OH2            16.2610544083       25.1506720999      -18.8153064556  SOLV      4294            0.0000000000
     12995      4305  TIP3      H1             17.0884726399       25.3069028869      -19.2873571924  SOLV      4294            0.0000000000
     12996      4305  TIP3      H2             15.6522053266       25.7708285420      -19.2703352998  SOLV      4294            0.0000000000
     12997      4306  TIP3      OH2            21.8707791277       24.7945386337      -15.0429906055  SOLV      4295            0.0000000000
     12998      4306  TIP3      H1             22.7303173001       24.3381666002      -14.9649117055  SOLV      4295            0.0000000000
     12999      4306  TIP3      H2             22.1843363995       25.6976230010      -15.2912353698  SOLV      4295            0.0000000000
     13000      4307  TIP3      OH2            14.8806815620       22.9532562412      -13.3865932220  SOLV      4296            0.0000000000
     13001      4307  TIP3      H1             14.1476913362       22.3276505811      -13.1997354469  SOLV      4296            0.0000000000
     13002      4307  TIP3      H2             15.0937063888       22.7348731389      -14.3135837129  SOLV      4296            0.0000000000
     13003      4308  TIP3      OH2            17.3096363125       17.4097514079      -16.8921306700  SOLV      4297            0.0000000000
     13004      4308  TIP3      H1             16.7853246474       18.2065758944      -17.1164169414  SOLV      4297            0.0000000000
     13005      4308  TIP3      H2             16.6381899492       16.7026330529      -16.9956631149  SOLV      4297            0.0000000000
     13006      4309  TIP3      OH2            18.4988748641       23.0735501684      -14.5593427108  SOLV      4298            0.0000000000
     13007      4309  TIP3      H1             18.2630015536       22.6480727194      -13.7030849479  SOLV      4298            0.0000000000
     13008      4309  TIP3      H2             17.6555856189       22.8687796889      -15.0300412454  SOLV      4298            0.0000000000
     13009      4310  TIP3      OH2            20.8865515616       22.1954609135      -15.9303257397  SOLV      4299            0.0000000000
     13010      4310  TIP3      H1             20.3639814850       21.4056228980      -15.7055779163  SOLV      4299            0.0000000000
     13011      4310  TIP3      H2             21.7859280694       21.8861206455      -15.6391367190  SOLV      4299            0.0000000000
     13012      4311  TIP3      OH2            23.0909058962       21.3151166248      -14.7156472052  SOLV      4300            0.0000000000
     13013      4311  TIP3      H1             23.3199514262       20.3683880136      -14.5840367503  SOLV      4300            0.0000000000
     13014      4311  TIP3      H2             23.1646893180       21.6790522859      -13.8096358808  SOLV      4300            0.0000000000
     13015      4312  TIP3      OH2            13.1833539153       20.8205133859      -12.8064774831  SOLV      4301            0.0000000000
     13016      4312  TIP3      H1             13.1480552901       19.8955562047      -13.1282300988  SOLV      4301            0.0000000000
     13017      4312  TIP3      H2             13.5511698718       20.6758385073      -11.9083222896  SOLV      4301            0.0000000000
     13018      4313  TIP3      OH2            18.2383087383       17.5321227158      -14.3072236180  SOLV      4302            0.0000000000
     13019      4313  TIP3      H1             18.8848281940       16.7983620985      -14.3595274816  SOLV      4302            0.0000000000
     13020      4313  TIP3      H2             17.8309693823       17.4670275791      -15.1949621347  SOLV      4302            0.0000000000
     13021      4314  TIP3      OH2            18.9779151810       19.7081340764      -12.8249022345  SOLV      4303            0.0000000000
     13022      4314  TIP3      H1             18.7313185248       18.9449380625      -13.3958467395  SOLV      4303            0.0000000000
     13023      4314  TIP3      H2             18.1543170799       20.2393128132      -12.8326093913  SOLV      4303            0.0000000000
     13024      4315  TIP3      OH2             5.8764866914       25.7491348199      -29.4209971771  SOLV      4304            0.0000000000
     13025      4315  TIP3      H1              6.7736806142       25.9673353616      -29.7615863718  SOLV      4304            0.0000000000
     13026      4315  TIP3      H2              5.7487627224       24.8450561990      -29.7875953077  SOLV      4304            0.0000000000
     13027      4316  TIP3      OH2             4.9982433335       31.9818989755      -25.4139699522  SOLV      4305            0.0000000000
     13028      4316  TIP3      H1              4.4089318297       31.3086087347      -25.8208097165  SOLV      4305            0.0000000000
     13029      4316  TIP3      H2              5.4747616431       31.4137366543      -24.7663684043  SOLV      4305            0.0000000000
     13030      4317  TIP3      OH2             6.3541318885       30.4251760039      -23.5820177529  SOLV      4306            0.0000000000
     13031      4317  TIP3      H1              6.2415571163       29.6856817151      -22.9623071158  SOLV      4306            0.0000000000
     13032      4317  TIP3      H2              6.9295029139       31.0030525638      -23.0459047824  SOLV      4306            0.0000000000
     13033      4318  TIP3      OH2            23.4854741267       25.2175259438      -28.7095358380  SOLV      4307            0.0000000000
     13034      4318  TIP3      H1             22.7170688446       24.7242702954      -28.3666317377  SOLV      4307            0.0000000000
     13035      4318  TIP3      H2             24.1267779535       25.0623008208      -28.0133515115  SOLV      4307            0.0000000000
     13036      4319  TIP3      OH2            21.8154934731       23.5491950138      -27.2416548934  SOLV      4308            0.0000000000
     13037      4319  TIP3      H1             21.9188419665       22.5852363606      -27.2224244753  SOLV      4308            0.0000000000
     13038      4319  TIP3      H2             21.7041107885       23.7629612846      -26.2895197058  SOLV      4308            0.0000000000
     13039      4320  TIP3      OH2             8.2516773696       24.4765490853      -19.8463823883  SOLV      4309            0.0000000000
     13040      4320  TIP3      H1              8.2224087460       24.1208949184      -20.7601443712  SOLV      4309            0.0000000000
     13041      4320  TIP3      H2              9.2252588112       24.4828801904      -19.6891737980  SOLV      4309            0.0000000000
     13042      4321  TIP3      OH2            26.9194715235       26.2255440646      -18.3376761871  SOLV      4310            0.0000000000
     13043      4321  TIP3      H1             26.0304869041       25.8674301372      -18.1385274392  SOLV      4310            0.0000000000
     13044      4321  TIP3      H2             27.4194454127       25.3875619419      -18.3991228255  SOLV      4310            0.0000000000
     13045      4322  TIP3      OH2            21.9417024625       20.7448999965      -28.2995138008  SOLV      4311            0.0000000000
     13046      4322  TIP3      H1             22.3713614433       19.8556772295      -28.2662670724  SOLV      4311            0.0000000000
     13047      4322  TIP3      H2             22.5446919049       21.1994989421      -28.9023460690  SOLV      4311            0.0000000000
     13048      4323  TIP3      OH2            23.5588528289       22.5994197582      -23.4402835748  SOLV      4312            0.0000000000
     13049      4323  TIP3      H1             24.3981296602       22.8414573765      -23.8973675351  SOLV      4312            0.0000000000
     13050      4323  TIP3      H2             23.7563418556       22.9504056357      -22.5494734315  SOLV      4312            0.0000000000
     13051      4324  TIP3      OH2            24.2375976356       23.9632094100      -21.0773838293  SOLV      4313            0.0000000000
     13052      4324  TIP3      H1             23.4989709240       24.4012549384      -20.6165332512  SOLV      4313            0.0000000000
     13053      4324  TIP3      H2             24.5993553384       24.7121306841      -21.6089059402  SOLV      4313            0.0000000000
     13054      4325  TIP3      OH2            10.5153927992       21.3606442132      -13.0225812783  SOLV      4314            0.0000000000
     13055      4325  TIP3      H1             11.4886178564       21.2565194724      -13.0274482721  SOLV      4314            0.0000000000
     13056      4325  TIP3      H2             10.2419492807       20.4730503340      -12.7184656344  SOLV      4314            0.0000000000
     13057      4326  TIP3      OH2            28.8506424753       20.0215051738      -15.5689843243  SOLV      4315            0.0000000000
     13058      4326  TIP3      H1             29.4472869077       19.3745583999      -16.0026814304  SOLV      4315            0.0000000000
     13059      4326  TIP3      H2             28.4948439732       20.5145053682      -16.3419023583  SOLV      4315            0.0000000000
     13060      4327  TIP3      OH2            23.1078129591       18.3019177468      -28.0448829476  SOLV      4316            0.0000000000
     13061      4327  TIP3      H1             23.5755037729       18.1655554253      -27.1938791032  SOLV      4316            0.0000000000
     13062      4327  TIP3      H2             22.4431695948       17.5807835408      -28.0085173095  SOLV      4316            0.0000000000
     13063      4328  TIP3      OH2            10.0702008989       18.2657202806      -19.8323560543  SOLV      4317            0.0000000000
     13064      4328  TIP3      H1             10.6742500999       17.5021683904      -19.7432595579  SOLV      4317            0.0000000000
     13065      4328  TIP3      H2             10.7080574265       18.9961055411      -19.9153264600  SOLV      4317            0.0000000000
     13066      4329  TIP3      OH2             8.0674392262       20.9710739835      -19.1111309885  SOLV      4318            0.0000000000
     13067      4329  TIP3      H1              8.5736095331       20.9662503845      -19.9474962098  SOLV      4318            0.0000000000
     13068      4329  TIP3      H2              8.3619253698       21.7947999980      -18.7068971800  SOLV      4318            0.0000000000
     13069      4330  TIP3      OH2            27.4206677662       21.2959714507      -17.4855213646  SOLV      4319            0.0000000000
     13070      4330  TIP3      H1             26.5799958418       21.7633347138      -17.2984107611  SOLV      4319            0.0000000000
     13071      4330  TIP3      H2             27.0944254260       20.6092226850      -18.1009317412  SOLV      4319            0.0000000000
     13072      4331  TIP3      OH2             7.9477354993       15.9856859521      -24.1057062377  SOLV      4320            0.0000000000
     13073      4331  TIP3      H1              7.0334908125       15.9416574109      -23.7785677074  SOLV      4320            0.0000000000
     13074      4331  TIP3      H2              7.8615415750       16.5974095863      -24.8671773093  SOLV      4320            0.0000000000
     13075      4332  TIP3      OH2            10.1496278114       16.8425509338      -15.9342859030  SOLV      4321            0.0000000000
     13076      4332  TIP3      H1              9.6220298594       16.7745668696      -15.1212930569  SOLV      4321            0.0000000000
     13077      4332  TIP3      H2              9.4881974922       17.2183046308      -16.5495267847  SOLV      4321            0.0000000000
     13078      4333  TIP3      OH2            10.5693894829       31.1575921448      -15.0053079841  SOLV      4322            0.0000000000
     13079      4333  TIP3      H1              9.6801766323       30.8885409523      -15.2940075237  SOLV      4322            0.0000000000
     13080      4333  TIP3      H2             10.5417375269       30.8869948140      -14.0633427659  SOLV      4322            0.0000000000
     13081      4334  TIP3      OH2            12.4048743432       31.4516835271      -19.6241278907  SOLV      4323            0.0000000000
     13082      4334  TIP3      H1             11.9145014701       32.2028420233      -20.0156001279  SOLV      4323            0.0000000000
     13083      4334  TIP3      H2             13.2455291569       31.5867305389      -20.1097843695  SOLV      4323            0.0000000000
     13084      4335  TIP3      OH2            17.0496666486       33.8801123984      -18.3588176051  SOLV      4324            0.0000000000
     13085      4335  TIP3      H1             17.4869066848       33.8396577581      -17.4989646875  SOLV      4324            0.0000000000
     13086      4335  TIP3      H2             17.7927371372       34.1024628339      -18.9402056829  SOLV      4324            0.0000000000
     13087      4336  TIP3      OH2            26.4902658478       18.9653568373      -18.7380219115  SOLV      4325            0.0000000000
     13088      4336  TIP3      H1             25.5959273461       18.8621813876      -19.1062402538  SOLV      4325            0.0000000000
     13089      4336  TIP3      H2             26.8371905087       18.0461267983      -18.8182838087  SOLV      4325            0.0000000000
     13090      4337  TIP3      OH2             9.3312212268       33.6375143480      -19.4037854700  SOLV      4326            0.0000000000
     13091      4337  TIP3      H1              8.3985559469       33.9004185583      -19.5680252637  SOLV      4326            0.0000000000
     13092      4337  TIP3      H2              9.5264934351       34.2505146434      -18.6636364971  SOLV      4326            0.0000000000
     13093      4338  TIP3      OH2            11.6430608279       33.7941170158      -20.7978746288  SOLV      4327            0.0000000000
     13094      4338  TIP3      H1             10.7543914520       33.7725648895      -20.3764018102  SOLV      4327            0.0000000000
     13095      4338  TIP3      H2             11.4148709324       34.1240526382      -21.6939837591  SOLV      4327            0.0000000000
     13096      4339  TIP3      OH2            15.6029108536       34.0894733487      -22.7284074784  SOLV      4328            0.0000000000
     13097      4339  TIP3      H1             14.9839523496       34.1342560328      -23.4836692474  SOLV      4328            0.0000000000
     13098      4339  TIP3      H2             15.7591562340       35.0342637205      -22.5378060565  SOLV      4328            0.0000000000
     13099      4340  TIP3      OH2            18.2505735641       33.4214419779      -22.2247083181  SOLV      4329            0.0000000000
     13100      4340  TIP3      H1             17.3107242616       33.6696412784      -22.3124639062  SOLV      4329            0.0000000000
     13101      4340  TIP3      H2             18.5807936286       33.7233252363      -23.0947011995  SOLV      4329            0.0000000000
     13102      4341  TIP3      OH2             8.1463412587       31.8497252643      -21.9644277311  SOLV      4330            0.0000000000
     13103      4341  TIP3      H1              8.4448127472       31.5402987275      -21.0814264426  SOLV      4330            0.0000000000
     13104      4341  TIP3      H2              8.8758379306       31.4707823239      -22.5077642565  SOLV      4330            0.0000000000
     13105      4342  TIP3      OH2            10.1210013412       30.6767400810      -23.4002064914  SOLV      4331            0.0000000000
     13106      4342  TIP3      H1             10.2758040615       29.8282329745      -22.9201634803  SOLV      4331            0.0000000000
     13107      4342  TIP3      H2             11.0360745703       31.0213019251      -23.4601746408  SOLV      4331            0.0000000000
     13108      4343  TIP3      OH2            12.8073720754       31.5723248577      -23.3628502757  SOLV      4332            0.0000000000
     13109      4343  TIP3      H1             13.1120398438       30.6525982305      -23.4796053406  SOLV      4332            0.0000000000
     13110      4343  TIP3      H2             13.2753613448       31.7944706941      -22.5365340831  SOLV      4332            0.0000000000
     13111      4344  TIP3      OH2            18.5492169584       18.1496431148      -22.4884325326  SOLV      4333            0.0000000000
     13112      4344  TIP3      H1             18.1244262417       17.4131232305      -22.0143456739  SOLV      4333            0.0000000000
     13113      4344  TIP3      H2             19.2880685203       17.7055265229      -22.9499302760  SOLV      4333            0.0000000000
     13114      4345  TIP3      OH2            23.7265497082       16.9704022464      -23.4944403893  SOLV      4334            0.0000000000
     13115      4345  TIP3      H1             24.1006385263       17.4700174023      -24.2548670031  SOLV      4334            0.0000000000
     13116      4345  TIP3      H2             22.7749624859       17.1604903398      -23.5749249929  SOLV      4334            0.0000000000
     13117      4346  TIP3      OH2            24.7083531353       17.9300178780      -25.8435817192  SOLV      4335            0.0000000000
     13118      4346  TIP3      H1             25.4668114067       17.4412916314      -26.2292364522  SOLV      4335            0.0000000000
     13119      4346  TIP3      H2             25.0183261226       18.8588639304      -25.9724157950  SOLV      4335            0.0000000000
     13120      4347  TIP3      OH2            11.0242806004       15.2235313592      -22.3934264107  SOLV      4336            0.0000000000
     13121      4347  TIP3      H1             10.0986271739       14.8992056349      -22.3331356827  SOLV      4336            0.0000000000
     13122      4347  TIP3      H2             11.5005125149       14.3659655835      -22.4308895191  SOLV      4336            0.0000000000
     13123      4348  TIP3      OH2             8.8882407648       13.9592508035      -25.8914649490  SOLV      4337            0.0000000000
     13124      4348  TIP3      H1              9.2028984254       14.5196649659      -26.6237258479  SOLV      4337            0.0000000000
     13125      4348  TIP3      H2              8.6411596082       14.6271804171      -25.2188612705  SOLV      4337            0.0000000000
     13126      4349  TIP3      OH2            15.5076872197       15.5309098699      -23.5470143060  SOLV      4338            0.0000000000
     13127      4349  TIP3      H1             16.0386219885       16.0039836808      -24.2120542949  SOLV      4338            0.0000000000
     13128      4349  TIP3      H2             15.8012289090       15.9484624032      -22.7243907483  SOLV      4338            0.0000000000
     13129      4350  TIP3      OH2            20.8746739813       17.0482765922      -23.7298353419  SOLV      4339            0.0000000000
     13130      4350  TIP3      H1             20.9212984137       16.6364139029      -24.6032891464  SOLV      4339            0.0000000000
     13131      4350  TIP3      H2             20.7835917221       16.2569037384      -23.1466619853  SOLV      4339            0.0000000000
     13132      4351  TIP3      OH2            21.2192456454       16.2933825244      -28.0260048648  SOLV      4340            0.0000000000
     13133      4351  TIP3      H1             20.3688453231       16.7503762167      -27.8722183599  SOLV      4340            0.0000000000
     13134      4351  TIP3      H2             21.0550679077       15.4450155381      -27.5613399125  SOLV      4340            0.0000000000
     13135      4352  TIP3      OH2             6.0198864078       29.5499354671      -28.0562104541  SOLV      4341            0.0000000000
     13136      4352  TIP3      H1              5.2503780932       29.0724668809      -28.3924285090  SOLV      4341            0.0000000000
     13137      4352  TIP3      H2              5.8797190499       30.4319135788      -28.4499296868  SOLV      4341            0.0000000000
     13138      4353  TIP3      OH2            10.1085217649       15.4852720820      -28.2254606981  SOLV      4342            0.0000000000
     13139      4353  TIP3      H1             10.6207468963       14.9279221300      -28.8430565434  SOLV      4342            0.0000000000
     13140      4353  TIP3      H2             10.8127133853       16.0412490124      -27.8394976337  SOLV      4342            0.0000000000
     13141      4354  TIP3      OH2            15.2257039605       17.3498084878      -27.3911501048  SOLV      4343            0.0000000000
     13142      4354  TIP3      H1             15.7768784635       16.8451668988      -26.7700082886  SOLV      4343            0.0000000000
     13143      4354  TIP3      H2             15.4404332484       18.2606766824      -27.0903532629  SOLV      4343            0.0000000000
     13144      4355  TIP3      OH2            13.1096374574       18.0983382639      -13.4190423092  SOLV      4344            0.0000000000
     13145      4355  TIP3      H1             12.7229278507       17.3739737509      -12.8961111707  SOLV      4344            0.0000000000
     13146      4355  TIP3      H2             14.0467390754       18.0488563583      -13.1314064352  SOLV      4344            0.0000000000
     13147      4356  TIP3      OH2            15.6487545324       18.0302843565      -12.2599486400  SOLV      4345            0.0000000000
     13148      4356  TIP3      H1             16.4688561304       17.6933976914      -12.6584482801  SOLV      4345            0.0000000000
     13149      4356  TIP3      H2             15.4810881323       17.3491921658      -11.5724578184  SOLV      4345            0.0000000000
     13150      4357  TIP3      OH2            23.9013868939       18.6786748959      -14.4103413196  SOLV      4346            0.0000000000
     13151      4357  TIP3      H1             24.0700382706       18.3523833874      -13.4988373504  SOLV      4346            0.0000000000
     13152      4357  TIP3      H2             24.7963262895       18.6106555499      -14.8083172834  SOLV      4346            0.0000000000
     13153      4358  TIP3      OH2            25.8045868743       20.2636074637      -26.5901788055  SOLV      4347            0.0000000000
     13154      4358  TIP3      H1             26.6295223110       20.5333899721      -26.1465558091  SOLV      4347            0.0000000000
     13155      4358  TIP3      H2             26.0799245245       20.0818855153      -27.5100864527  SOLV      4347            0.0000000000
     13156      4359  TIP3      OH2            29.7861244509       22.4115954400      -20.5348131631  SOLV      4348            0.0000000000
     13157      4359  TIP3      H1             28.8760162751       22.4897721919      -20.8653113662  SOLV      4348            0.0000000000
     13158      4359  TIP3      H2             29.8196745320       21.4820472093      -20.2650218711  SOLV      4348            0.0000000000
     13159      4360  TIP3      OH2            29.8135730783       18.8377053068      -24.8944954201  SOLV      4349            0.0000000000
     13160      4360  TIP3      H1             29.6165447846       18.5294682907      -25.8082381621  SOLV      4349            0.0000000000
     13161      4360  TIP3      H2             29.7773496264       18.0023198948      -24.3957902800  SOLV      4349            0.0000000000
     13162      4361  TIP3      OH2            30.8147427596       23.4735047343      -17.7102943014  SOLV      4350            0.0000000000
     13163      4361  TIP3      H1             30.8146769967       22.6522793963      -18.2346545850  SOLV      4350            0.0000000000
     13164      4361  TIP3      H2             31.4215071842       23.2285391605      -16.9899229200  SOLV      4350            0.0000000000
     13165      4362  TIP3      OH2            28.1564863827       23.7964782775      -18.4344413700  SOLV      4351            0.0000000000
     13166      4362  TIP3      H1             29.1331722844       23.7836230920      -18.3874666566  SOLV      4351            0.0000000000
     13167      4362  TIP3      H2             27.9613691349       22.9684413008      -17.9522799237  SOLV      4351            0.0000000000
     13168      4363  TIP3      OH2            27.8676228472       20.8267848192      -24.7321223425  SOLV      4352            0.0000000000
     13169      4363  TIP3      H1             28.4239502401       20.0210533718      -24.7678137074  SOLV      4352            0.0000000000
     13170      4363  TIP3      H2             28.5879818332       21.4930313427      -24.6913411740  SOLV      4352            0.0000000000
     13171      4364  TIP3      OH2            26.0289563076       23.4222760677      -24.3065285940  SOLV      4353            0.0000000000
     13172      4364  TIP3      H1             26.8046301851       23.1152611663      -24.7950023725  SOLV      4353            0.0000000000
     13173      4364  TIP3      H2             26.3546933550       24.1874613538      -23.8132303487  SOLV      4353            0.0000000000
     13174      4365  TIP3      OH2            25.7151911263       19.0003908249      -29.1275629413  SOLV      4354            0.0000000000
     13175      4365  TIP3      H1             24.8511073026       18.6758733273      -28.8241971539  SOLV      4354            0.0000000000
     13176      4365  TIP3      H2             25.7276672100       18.6680008722      -30.0333510141  SOLV      4354            0.0000000000
     13177      4366  TIP3      OH2            28.1464414971       19.4381825511      -21.0338136434  SOLV      4355            0.0000000000
     13178      4366  TIP3      H1             27.5991239472       19.3593786065      -20.2356149027  SOLV      4355            0.0000000000
     13179      4366  TIP3      H2             27.4840030786       19.7511880456      -21.6800165816  SOLV      4355            0.0000000000
     13180      4367  TIP3      OH2            28.9865216231       17.8567198664      -27.2982503143  SOLV      4356            0.0000000000
     13181      4367  TIP3      H1             28.0575614884       17.5709682454      -27.3719206102  SOLV      4356            0.0000000000
     13182      4367  TIP3      H2             29.4467675820       17.0007015233      -27.4363274417  SOLV      4356            0.0000000000
     13183      4368  TIP3      OH2            31.0246559403       20.5073695330      -18.5441084418  SOLV      4357            0.0000000000
     13184      4368  TIP3      H1             30.6606292237       19.8202475459      -17.9592252179  SOLV      4357            0.0000000000
     13185      4368  TIP3      H2             31.9661963840       20.4945530830      -18.2747087155  SOLV      4357            0.0000000000
     13186      4369  TIP3      OH2            33.5074618651       20.4498061338      -17.3014589500  SOLV      4358            0.0000000000
     13187      4369  TIP3      H1             34.4356637283       20.1426046901      -17.4604949470  SOLV      4358            0.0000000000
     13188      4369  TIP3      H2             33.2439797334       19.7845243602      -16.6268951105  SOLV      4358            0.0000000000
     13189      4370  TIP3      OH2           -28.8381573944       30.4623091995       -4.0521612090  SOLV      4359            0.0000000000
     13190      4370  TIP3      H1            -28.3326222856       29.6302039367       -4.1811746044  SOLV      4359            0.0000000000
     13191      4370  TIP3      H2            -28.1165888699       31.1007878159       -3.9982941079  SOLV      4359            0.0000000000
     13192      4371  TIP3      OH2           -30.9657350738       29.0428515881       -7.0108589324  SOLV      4360            0.0000000000
     13193      4371  TIP3      H1            -31.7722006791       28.6227576479       -7.3872753775  SOLV      4360            0.0000000000
     13194      4371  TIP3      H2            -30.3727104055       28.2584973626       -6.9998912164  SOLV      4360            0.0000000000
     13195      4372  TIP3      OH2           -33.7450972866       27.2550139829      -11.8230067512  SOLV      4361            0.0000000000
     13196      4372  TIP3      H1            -33.2250387632       27.8472673197      -12.4114743628  SOLV      4361            0.0000000000
     13197      4372  TIP3      H2            -34.6324102708       27.6164454589      -11.9197509122  SOLV      4361            0.0000000000
     13198      4373  TIP3      OH2           -32.5787679229       28.5920683929      -13.9269387041  SOLV      4362            0.0000000000
     13199      4373  TIP3      H1            -32.0120193656       27.9686279436      -14.4225323463  SOLV      4362            0.0000000000
     13200      4373  TIP3      H2            -32.2134178660       29.4436951176      -14.1804714999  SOLV      4362            0.0000000000
     13201      4374  TIP3      OH2           -22.6567800911       29.1725202080      -14.3075906503  SOLV      4363            0.0000000000
     13202      4374  TIP3      H1            -22.7945622165       28.2330265325      -14.0653556452  SOLV      4363            0.0000000000
     13203      4374  TIP3      H2            -23.3969755841       29.5772549494      -13.7981224679  SOLV      4363            0.0000000000
     13204      4375  TIP3      OH2           -16.2118029531       28.7042227572      -23.2844929745  SOLV      4364            0.0000000000
     13205      4375  TIP3      H1            -16.9574883665       28.9038815725      -22.6713704793  SOLV      4364            0.0000000000
     13206      4375  TIP3      H2            -16.4911911042       29.1814223859      -24.0757096284  SOLV      4364            0.0000000000
     13207      4376  TIP3      OH2           -24.8084196130       30.0170897903      -12.8490109588  SOLV      4365            0.0000000000
     13208      4376  TIP3      H1            -25.6623395756       29.5869725724      -13.1081597918  SOLV      4365            0.0000000000
     13209      4376  TIP3      H2            -25.0328821742       30.9346817597      -13.0552075912  SOLV      4365            0.0000000000
     13210      4377  TIP3      OH2           -19.6521923839       31.0366655828      -11.0768216063  SOLV      4366            0.0000000000
     13211      4377  TIP3      H1            -18.8992532978       30.9362447431      -10.4600853521  SOLV      4366            0.0000000000
     13212      4377  TIP3      H2            -20.4170596399       31.0645373987      -10.4776531506  SOLV      4366            0.0000000000
     13213      4378  TIP3      OH2           -27.2454036481       28.9008342344      -13.3503184844  SOLV      4367            0.0000000000
     13214      4378  TIP3      H1            -27.8768471652       28.8685483510      -14.0885641509  SOLV      4367            0.0000000000
     13215      4378  TIP3      H2            -27.6206766990       28.2611749446      -12.7180202786  SOLV      4367            0.0000000000
     13216      4379  TIP3      OH2           -22.4415822566       30.6168547478      -10.4003961274  SOLV      4368            0.0000000000
     13217      4379  TIP3      H1            -22.7115491293       30.9702318857      -11.2602035319  SOLV      4368            0.0000000000
     13218      4379  TIP3      H2            -23.0182761193       29.8220373098      -10.3459881983  SOLV      4368            0.0000000000
     13219      4380  TIP3      OH2           -21.4073734522       30.3831731707       -7.7719004245  SOLV      4369            0.0000000000
     13220      4380  TIP3      H1            -20.7819095031       29.6321235867       -7.8488835013  SOLV      4369            0.0000000000
     13221      4380  TIP3      H2            -21.8340152723       30.3820672659       -8.6475395574  SOLV      4369            0.0000000000
     13222      4381  TIP3      OH2           -20.2142136361       32.3897106276       -6.3801492116  SOLV      4370            0.0000000000
     13223      4381  TIP3      H1            -20.5762076220       31.6189593913       -6.8719951407  SOLV      4370            0.0000000000
     13224      4381  TIP3      H2            -21.0193573807       32.6992589131       -5.9015734433  SOLV      4370            0.0000000000
     13225      4382  TIP3      OH2           -10.9058908979       32.9762381759       -9.1953881142  SOLV      4371            0.0000000000
     13226      4382  TIP3      H1            -10.3939843527       32.1526423905       -9.3510688953  SOLV      4371            0.0000000000
     13227      4382  TIP3      H2            -10.1902756260       33.6216790529       -9.1528988239  SOLV      4371            0.0000000000
     13228      4383  TIP3      OH2           -29.1279454222       29.4824801646       -9.1173877634  SOLV      4372            0.0000000000
     13229      4383  TIP3      H1            -29.6686866178       29.5766206605       -8.3111183323  SOLV      4372            0.0000000000
     13230      4383  TIP3      H2            -29.8393818238       29.5494011307       -9.7922449315  SOLV      4372            0.0000000000
     13231      4384  TIP3      OH2           -12.9245265239       31.4935649305      -12.2184174302  SOLV      4373            0.0000000000
     13232      4384  TIP3      H1            -13.8364874257       31.1496005045      -12.2906731521  SOLV      4373            0.0000000000
     13233      4384  TIP3      H2            -12.4212338388       30.6526153630      -12.1890889908  SOLV      4373            0.0000000000
     13234      4385  TIP3      OH2           -21.2840536540       30.8473683807      -16.2347746415  SOLV      4374            0.0000000000
     13235      4385  TIP3      H1            -21.8517036141       30.5707614578      -15.4831834615  SOLV      4374            0.0000000000
     13236      4385  TIP3      H2            -20.4383987308       30.4552329630      -15.9544976389  SOLV      4374            0.0000000000
     13237      4386  TIP3      OH2           -15.3497179537       30.1548035586      -16.8598406883  SOLV      4375            0.0000000000
     13238      4386  TIP3      H1            -15.3631662999       30.6207941429      -17.7283059818  SOLV      4375            0.0000000000
     13239      4386  TIP3      H2            -16.3196774355       30.0877255949      -16.6944129333  SOLV      4375            0.0000000000
     13240      4387  TIP3      OH2           -14.3406433231       31.2777157911      -19.0610439071  SOLV      4376            0.0000000000
     13241      4387  TIP3      H1            -13.8788860036       30.6580230113      -19.6710873106  SOLV      4376            0.0000000000
     13242      4387  TIP3      H2            -14.3798317626       32.0823600380      -19.5955979696  SOLV      4376            0.0000000000
     13243      4388  TIP3      OH2           -28.7197275740       28.3618488709      -15.8113281168  SOLV      4377            0.0000000000
     13244      4388  TIP3      H1            -29.5426178668       27.8635116620      -15.6220538464  SOLV      4377            0.0000000000
     13245      4388  TIP3      H2            -28.0860779636       27.6196705808      -15.8772340097  SOLV      4377            0.0000000000
     13246      4389  TIP3      OH2           -30.9341454654       26.9232121710      -19.2455986332  SOLV      4378            0.0000000000
     13247      4389  TIP3      H1            -30.1373909376       26.6988082101      -19.7626980786  SOLV      4378            0.0000000000
     13248      4389  TIP3      H2            -30.6356800222       27.6368067254      -18.6688124590  SOLV      4378            0.0000000000
     13249      4390  TIP3      OH2           -24.1702221758       28.5794009320      -16.8124878784  SOLV      4379            0.0000000000
     13250      4390  TIP3      H1            -23.4717695669       28.2179972574      -17.3803257246  SOLV      4379            0.0000000000
     13251      4390  TIP3      H2            -23.6926668346       28.9356082478      -16.0452436124  SOLV      4379            0.0000000000
     13252      4391  TIP3      OH2           -18.1364838426       30.0413595599      -16.7766493017  SOLV      4380            0.0000000000
     13253      4391  TIP3      H1            -18.6864962792       29.6059029444      -17.4607935792  SOLV      4380            0.0000000000
     13254      4391  TIP3      H2            -18.2610005135       29.3788485377      -16.0544086139  SOLV      4380            0.0000000000
     13255      4392  TIP3      OH2           -18.1878984903       29.3208400474      -21.5507171772  SOLV      4381            0.0000000000
     13256      4392  TIP3      H1            -19.1050534283       29.4710926808      -21.8178304054  SOLV      4381            0.0000000000
     13257      4392  TIP3      H2            -18.3249814391       28.5776589629      -20.9299756023  SOLV      4381            0.0000000000
     13258      4393  TIP3      OH2           -26.3186899176       30.1305660339       -6.9880786839  SOLV      4382            0.0000000000
     13259      4393  TIP3      H1            -26.7132516492       29.5087645706       -6.3348617964  SOLV      4382            0.0000000000
     13260      4393  TIP3      H2            -25.3965167202       30.1838144141       -6.6348967586  SOLV      4382            0.0000000000
     13261      4394  TIP3      OH2           -23.9880319455       30.7426103474       -5.8525729719  SOLV      4383            0.0000000000
     13262      4394  TIP3      H1            -23.0609168549       30.6167981550       -6.1182980537  SOLV      4383            0.0000000000
     13263      4394  TIP3      H2            -23.9874831414       30.2961006115       -4.9841471531  SOLV      4383            0.0000000000
     13264      4395  TIP3      OH2           -15.8195099407       31.6757834060       -7.8536872513  SOLV      4384            0.0000000000
     13265      4395  TIP3      H1            -15.6265418815       31.4923490341       -6.9116310841  SOLV      4384            0.0000000000
     13266      4395  TIP3      H2            -14.9177167829       31.7345690904       -8.2286538515  SOLV      4384            0.0000000000
     13267      4396  TIP3      OH2            -4.6356652333       31.6609485600      -19.3375492331  SOLV      4385            0.0000000000
     13268      4396  TIP3      H1             -4.8057728831       30.7199583706      -19.1317632051  SOLV      4385            0.0000000000
     13269      4396  TIP3      H2             -5.3826236824       32.0839233330      -18.8607761182  SOLV      4385            0.0000000000
     13270      4397  TIP3      OH2             1.6947726978       31.2537172360      -28.3723391983  SOLV      4386            0.0000000000
     13271      4397  TIP3      H1              1.0002756611       31.4256329474      -27.6959019788  SOLV      4386            0.0000000000
     13272      4397  TIP3      H2              1.4041259348       31.8384708269      -29.0771974394  SOLV      4386            0.0000000000
     13273      4398  TIP3      OH2            -6.8589641407       32.5631761731      -17.9695480082  SOLV      4387            0.0000000000
     13274      4398  TIP3      H1             -7.7490639700       32.2168136864      -18.2223711336  SOLV      4387            0.0000000000
     13275      4398  TIP3      H2             -6.9935300973       33.5111686378      -18.0984458047  SOLV      4387            0.0000000000
     13276      4399  TIP3      OH2            -1.6949512448       33.6359802953      -16.1803021016  SOLV      4388            0.0000000000
     13277      4399  TIP3      H1             -0.9194105341       33.4674589737      -15.6069056786  SOLV      4388            0.0000000000
     13278      4399  TIP3      H2             -2.4364343976       33.6224127771      -15.5563160248  SOLV      4388            0.0000000000
     13279      4400  TIP3      OH2            -9.3476802101       31.5213757180      -18.4460668629  SOLV      4389            0.0000000000
     13280      4400  TIP3      H1             -9.9102641620       31.3748820487      -19.2301680937  SOLV      4389            0.0000000000
     13281      4400  TIP3      H2             -9.6379677251       30.8231919032      -17.8356345055  SOLV      4389            0.0000000000
     13282      4401  TIP3      OH2            -4.5059240154       33.2793762351      -15.4905106367  SOLV      4390            0.0000000000
     13283      4401  TIP3      H1             -4.6170998498       33.6331226343      -16.3909532696  SOLV      4390            0.0000000000
     13284      4401  TIP3      H2             -5.0804936876       32.4834787313      -15.5226031974  SOLV      4390            0.0000000000
     13285      4402  TIP3      OH2            -3.4806517151       32.9396744892      -12.8605664839  SOLV      4391            0.0000000000
     13286      4402  TIP3      H1             -2.8284171718       32.2151875166      -12.9790425137  SOLV      4391            0.0000000000
     13287      4402  TIP3      H2             -3.8962702137       32.9775306355      -13.7427771152  SOLV      4391            0.0000000000
     13288      4403  TIP3      OH2            -2.3078268009       34.9154217821      -11.3872769805  SOLV      4392            0.0000000000
     13289      4403  TIP3      H1             -2.6190264702       34.1598596599      -11.9335485190  SOLV      4392            0.0000000000
     13290      4403  TIP3      H2             -3.1529973640       35.2346573399      -10.9973953068  SOLV      4392            0.0000000000
     13291      4404  TIP3      OH2             7.0310441477       35.5880713786      -14.4235005543  SOLV      4393            0.0000000000
     13292      4404  TIP3      H1              7.5306983508       34.7466493565      -14.4821692375  SOLV      4393            0.0000000000
     13293      4404  TIP3      H2              7.7462103313       36.1977364192      -14.1950112103  SOLV      4393            0.0000000000
     13294      4405  TIP3      OH2           -11.0822264892       32.1767467229      -14.2222670622  SOLV      4394            0.0000000000
     13295      4405  TIP3      H1            -11.6414148868       32.0902779582      -13.4218616022  SOLV      4394            0.0000000000
     13296      4405  TIP3      H2            -11.7524711900       32.4044085850      -14.8837723216  SOLV      4394            0.0000000000
     13297      4406  TIP3      OH2             4.9382391186       34.0591929600      -17.2755421190  SOLV      4395            0.0000000000
     13298      4406  TIP3      H1              4.0912558562       33.6428746959      -17.5291641117  SOLV      4395            0.0000000000
     13299      4406  TIP3      H2              5.5237978738       33.2694091521      -17.2928437964  SOLV      4395            0.0000000000
     13300      4407  TIP3      OH2            -3.0605681834       33.6964469666      -20.9288920297  SOLV      4396            0.0000000000
     13301      4407  TIP3      H1             -3.3212668087       32.9473796033      -20.3663075377  SOLV      4396            0.0000000000
     13302      4407  TIP3      H2             -2.2004247057       33.4087495898      -21.2800498704  SOLV      4396            0.0000000000
     13303      4408  TIP3      OH2             2.2152143826       32.4345341321      -22.0868428170  SOLV      4397            0.0000000000
     13304      4408  TIP3      H1              2.5663098911       33.0948530333      -22.7155420191  SOLV      4397            0.0000000000
     13305      4408  TIP3      H2              1.2609428971       32.6375447112      -22.0861217870  SOLV      4397            0.0000000000
     13306      4409  TIP3      OH2             3.1199520004       33.7901795973      -24.4301799836  SOLV      4398            0.0000000000
     13307      4409  TIP3      H1              3.7124245563       33.1082672821      -24.8098786657  SOLV      4398            0.0000000000
     13308      4409  TIP3      H2              3.7261128970       34.5319713843      -24.3360712049  SOLV      4398            0.0000000000
     13309      4410  TIP3      OH2           -10.6676648637       30.8895817276      -20.8556864105  SOLV      4399            0.0000000000
     13310      4410  TIP3      H1            -11.5380719486       30.4420178860      -20.8309996378  SOLV      4399            0.0000000000
     13311      4410  TIP3      H2            -10.0870063496       30.1085242252      -20.9672301183  SOLV      4399            0.0000000000
     13312      4411  TIP3      OH2           -12.6343244171       29.2436374507      -24.3271800217  SOLV      4400            0.0000000000
     13313      4411  TIP3      H1            -12.1113332577       29.6493990349      -25.0274244930  SOLV      4400            0.0000000000
     13314      4411  TIP3      H2            -13.0619069076       30.0462858577      -23.9663413990  SOLV      4400            0.0000000000
     13315      4412  TIP3      OH2            -6.1522369603       30.9243032489      -21.9448382051  SOLV      4401            0.0000000000
     13316      4412  TIP3      H1             -6.0875282700       31.7702525691      -22.4186512245  SOLV      4401            0.0000000000
     13317      4412  TIP3      H2             -5.7896075254       31.1782510022      -21.0835372137  SOLV      4401            0.0000000000
     13318      4413  TIP3      OH2            -0.6035525245       32.5268292445      -22.2390266325  SOLV      4402            0.0000000000
     13319      4413  TIP3      H1             -0.8499727568       32.0023016168      -23.0125264600  SOLV      4402            0.0000000000
     13320      4413  TIP3      H2             -0.7129718775       31.8378462416      -21.5388550263  SOLV      4402            0.0000000000
     13321      4414  TIP3      OH2            -0.3092592013       31.8434172114      -26.6121722510  SOLV      4403            0.0000000000
     13322      4414  TIP3      H1             -1.1947714381       31.9186569276      -26.9928051153  SOLV      4403            0.0000000000
     13323      4414  TIP3      H2             -0.4101081328       31.0372736494      -26.0602555047  SOLV      4403            0.0000000000
     13324      4415  TIP3      OH2            -8.3613127083       32.6798152396      -12.1492486256  SOLV      4404            0.0000000000
     13325      4415  TIP3      H1             -8.7567085338       32.0666238700      -11.4889882943  SOLV      4404            0.0000000000
     13326      4415  TIP3      H2             -7.4431877777       32.7497114860      -11.7895500396  SOLV      4404            0.0000000000
     13327      4416  TIP3      OH2            -6.0421623440       33.3189798254      -11.0236226780  SOLV      4405            0.0000000000
     13328      4416  TIP3      H1             -5.1201111350       33.2147750030      -11.3144206106  SOLV      4405            0.0000000000
     13329      4416  TIP3      H2             -6.0262185716       32.8807422467      -10.1493542608  SOLV      4405            0.0000000000
     13330      4417  TIP3      OH2             2.1355135197       34.2484431276      -12.9917682564  SOLV      4406            0.0000000000
     13331      4417  TIP3      H1              2.3602713645       34.0635778769      -12.0586315050  SOLV      4406            0.0000000000
     13332      4417  TIP3      H2              3.0264973034       34.3138462272      -13.3951585226  SOLV      4406            0.0000000000
     13333      4418  TIP3      OH2            13.3106606004       34.2107050609      -24.4772952869  SOLV      4407            0.0000000000
     13334      4418  TIP3      H1             13.1487816999       33.2631336497      -24.2982366981  SOLV      4407            0.0000000000
     13335      4418  TIP3      H2             12.5633621736       34.6149626955      -23.9856097707  SOLV      4407            0.0000000000
     13336      4419  TIP3      OH2            11.0986354226       35.1017158750      -23.0912670349  SOLV      4408            0.0000000000
     13337      4419  TIP3      H1             10.2094248299       34.7596497580      -23.3551527016  SOLV      4408            0.0000000000
     13338      4419  TIP3      H2             10.9813295948       36.0459714861      -23.2581935431  SOLV      4408            0.0000000000
     13339      4420  TIP3      OH2            16.1691469670       36.4162617347      -21.2275992768  SOLV      4409            0.0000000000
     13340      4420  TIP3      H1             16.6733620289       36.0499885583      -20.4969825370  SOLV      4409            0.0000000000
     13341      4420  TIP3      H2             15.2434193967       36.2803397356      -20.9420682073  SOLV      4409            0.0000000000
     13342      4421  TIP3      OH2             8.6145189274       34.0862593718      -23.6164835323  SOLV      4410            0.0000000000
     13343      4421  TIP3      H1              8.0157270668       33.9519854843      -24.3725669853  SOLV      4410            0.0000000000
     13344      4421  TIP3      H2              8.2970432449       33.4223802297      -22.9774991765  SOLV      4410            0.0000000000
     13345      4422  TIP3      OH2            13.5157759400       35.8522261911      -20.6650293191  SOLV      4411            0.0000000000
     13346      4422  TIP3      H1             13.2841133400       36.3383095379      -21.4889699099  SOLV      4411            0.0000000000
     13347      4422  TIP3      H2             12.9000430738       35.0880125246      -20.7124205304  SOLV      4411            0.0000000000
     13348      4423  TIP3      OH2            14.6102813075       35.5121688074      -18.0102144950  SOLV      4412            0.0000000000
     13349      4423  TIP3      H1             15.2215308372       34.7780415720      -18.1973661752  SOLV      4412            0.0000000000
     13350      4423  TIP3      H2             14.1110570249       35.5779212459      -18.8474769917  SOLV      4412            0.0000000000
     13351      4424  TIP3      OH2            15.6843815764       37.4139516253      -16.3185124183  SOLV      4413            0.0000000000
     13352      4424  TIP3      H1             15.3753109307       36.7468690132      -16.9679468367  SOLV      4413            0.0000000000
     13353      4424  TIP3      H2             14.8364233505       37.7500466194      -15.9529658941  SOLV      4413            0.0000000000
     13354      4425  TIP3      OH2             6.8008265607       34.6108685446      -19.3747210291  SOLV      4414            0.0000000000
     13355      4425  TIP3      H1              6.2754323941       34.6304764682      -18.5546789286  SOLV      4414            0.0000000000
     13356      4425  TIP3      H2              6.0761432370       34.6734429717      -20.0347144737  SOLV      4414            0.0000000000
     13357      4426  TIP3      OH2            14.7838503142       36.2350214934      -26.0776520008  SOLV      4415            0.0000000000
     13358      4426  TIP3      H1             14.5457716316       35.4645892848      -25.5307158335  SOLV      4415            0.0000000000
     13359      4426  TIP3      H2             15.6899715173       36.0252330806      -26.3444898406  SOLV      4415            0.0000000000
     13360      4427  TIP3      OH2             7.2483349020       33.4802507547      -26.0358998609  SOLV      4416            0.0000000000
     13361      4427  TIP3      H1              6.3926633241       33.0183125647      -25.9079873678  SOLV      4416            0.0000000000
     13362      4427  TIP3      H2              7.8406856902       32.7069358924      -26.1386724570  SOLV      4416            0.0000000000
     13363      4428  TIP3      OH2             5.1610240742       31.7592358876      -29.4443117990  SOLV      4417            0.0000000000
     13364      4428  TIP3      H1              5.7734602535       31.9932831894      -30.1506128965  SOLV      4417            0.0000000000
     13365      4428  TIP3      H2              4.8406088998       32.6517458483      -29.1938317336  SOLV      4417            0.0000000000
     13366      4429  TIP3      OH2            11.8161383399       33.4725253398      -27.0935346499  SOLV      4418            0.0000000000
     13367      4429  TIP3      H1             11.9277557093       34.2913563434      -27.6060695560  SOLV      4418            0.0000000000
     13368      4429  TIP3      H2             12.2043152394       33.7453377205      -26.2487864186  SOLV      4418            0.0000000000
     13369      4430  TIP3      OH2             9.5472905585       35.2730322982      -17.2521990444  SOLV      4419            0.0000000000
     13370      4430  TIP3      H1              9.1570219915       34.6446302728      -16.6019733002  SOLV      4419            0.0000000000
     13371      4430  TIP3      H2             10.4687044529       35.3279394475      -16.8989325399  SOLV      4419            0.0000000000
     13372      4431  TIP3      OH2            11.8886318164       35.8262993833      -16.1294046200  SOLV      4420            0.0000000000
     13373      4431  TIP3      H1             12.8204723829       35.7814041570      -16.3895547309  SOLV      4420            0.0000000000
     13374      4431  TIP3      H2             11.8944661085       35.4485758827      -15.2257418934  SOLV      4420            0.0000000000
     13375      4432  TIP3      OH2           -20.5706443974      -32.2907805885       17.3839866580  SOLV      4421            0.0000000000
     13376      4432  TIP3      H1            -20.8775052914      -31.3934747343       17.1293312091  SOLV      4421            0.0000000000
     13377      4432  TIP3      H2            -21.3211716589      -32.8076600682       17.0446032850  SOLV      4421            0.0000000000
     13378      4433  TIP3      OH2           -18.1146280183      -29.2497042691       17.9941783821  SOLV      4422            0.0000000000
     13379      4433  TIP3      H1            -18.3013091590      -29.9414699573       18.6367812407  SOLV      4422            0.0000000000
     13380      4433  TIP3      H2            -17.8124066602      -28.5118414776       18.5532833923  SOLV      4422            0.0000000000
     13381      4434  TIP3      OH2           -21.6376786326      -24.7114893931       18.2027692486  SOLV      4423            0.0000000000
     13382      4434  TIP3      H1            -21.2229216768      -25.4159210091       17.6614493992  SOLV      4423            0.0000000000
     13383      4434  TIP3      H2            -21.7235749485      -25.1468433415       19.0587638871  SOLV      4423            0.0000000000
     13384      4435  TIP3      OH2           -22.4311406980      -30.1429755072       21.4716544651  SOLV      4424            0.0000000000
     13385      4435  TIP3      H1            -21.9677430958      -30.7011303167       20.8383740525  SOLV      4424            0.0000000000
     13386      4435  TIP3      H2            -21.6765380329      -29.7024970641       21.9079461822  SOLV      4424            0.0000000000
     13387      4436  TIP3      OH2           -12.6081397662      -36.6183665988       21.4390648152  SOLV      4425            0.0000000000
     13388      4436  TIP3      H1            -12.5206235161      -35.8510895884       22.0329642896  SOLV      4425            0.0000000000
     13389      4436  TIP3      H2            -12.8005820942      -36.1855542527       20.5941103362  SOLV      4425            0.0000000000
     13390      4437  TIP3      OH2           -12.0222362006      -34.7044733159       23.4633616418  SOLV      4426            0.0000000000
     13391      4437  TIP3      H1            -12.8660203410      -34.2167691158       23.3448164353  SOLV      4426            0.0000000000
     13392      4437  TIP3      H2            -11.5356418935      -34.1295762736       24.0772141782  SOLV      4426            0.0000000000
     13393      4438  TIP3      OH2           -21.6637749430      -30.1113376119       16.1569733668  SOLV      4427            0.0000000000
     13394      4438  TIP3      H1            -21.9485605541      -30.2885125265       15.2557115937  SOLV      4427            0.0000000000
     13395      4438  TIP3      H2            -22.1477794970      -29.2788683784       16.3553553231  SOLV      4427            0.0000000000
     13396      4439  TIP3      OH2           -17.4939257348      -26.8752333968       19.6461740621  SOLV      4428            0.0000000000
     13397      4439  TIP3      H1            -18.3874108217      -26.9516783638       20.0538084574  SOLV      4428            0.0000000000
     13398      4439  TIP3      H2            -17.5731146911      -26.0112787759       19.1931522212  SOLV      4428            0.0000000000
     13399      4440  TIP3      OH2           -20.4821829728      -26.4401463053       16.3851465088  SOLV      4429            0.0000000000
     13400      4440  TIP3      H1            -19.9931949195      -27.2760527531       16.2028873790  SOLV      4429            0.0000000000
     13401      4440  TIP3      H2            -19.8415916045      -25.8010238213       15.9940739286  SOLV      4429            0.0000000000
     13402      4441  TIP3      OH2           -19.0389022185      -28.5853234466       15.4958985572  SOLV      4430            0.0000000000
     13403      4441  TIP3      H1            -19.3684651974      -29.4084401088       15.1150195885  SOLV      4430            0.0000000000
     13404      4441  TIP3      H2            -18.6390042423      -28.9030224891       16.3363302609  SOLV      4430            0.0000000000
     13405      4442  TIP3      OH2           -15.2269281404      -27.7519731408       23.1246061296  SOLV      4431            0.0000000000
     13406      4442  TIP3      H1            -15.3524984579      -28.5397806037       22.5507482662  SOLV      4431            0.0000000000
     13407      4442  TIP3      H2            -15.4142341756      -27.0189472457       22.5002977928  SOLV      4431            0.0000000000
     13408      4443  TIP3      OH2           -22.4247022607      -33.4100113230       15.4359681339  SOLV      4432            0.0000000000
     13409      4443  TIP3      H1            -23.0312553953      -34.1263172995       15.6685908676  SOLV      4432            0.0000000000
     13410      4443  TIP3      H2            -21.7553243121      -33.8676327511       14.8895351866  SOLV      4432            0.0000000000
     13411      4444  TIP3      OH2           -13.2455081988      -31.3401912525       21.5715520953  SOLV      4433            0.0000000000
     13412      4444  TIP3      H1            -14.0884643535      -30.8351769428       21.5990689651  SOLV      4433            0.0000000000
     13413      4444  TIP3      H2            -12.9494022968      -31.1277126070       20.6582373768  SOLV      4433            0.0000000000
     13414      4445  TIP3      OH2           -18.7835458429      -32.9038038888       15.3885452593  SOLV      4434            0.0000000000
     13415      4445  TIP3      H1            -19.3366555334      -32.7053640546       16.1782908386  SOLV      4434            0.0000000000
     13416      4445  TIP3      H2            -17.9442543395      -33.1724320406       15.8174890638  SOLV      4434            0.0000000000
     13417      4446  TIP3      OH2           -16.3498902446      -32.5002772791       24.5239834247  SOLV      4435            0.0000000000
     13418      4446  TIP3      H1            -16.4933406766      -31.7052280703       25.0679076390  SOLV      4435            0.0000000000
     13419      4446  TIP3      H2            -17.2463250903      -32.7071408949       24.2325130331  SOLV      4435            0.0000000000
     13420      4447  TIP3      OH2           -19.8773123932      -26.9475037062       20.9059410230  SOLV      4436            0.0000000000
     13421      4447  TIP3      H1            -19.9929564577      -26.1192882363       21.4095986696  SOLV      4436            0.0000000000
     13422      4447  TIP3      H2            -20.0861811582      -27.6383937642       21.5576233500  SOLV      4436            0.0000000000
     13423      4448  TIP3      OH2           -20.4008161029      -34.5074497888       13.8072233992  SOLV      4437            0.0000000000
     13424      4448  TIP3      H1            -19.7843327122      -33.8743491177       14.2310421848  SOLV      4437            0.0000000000
     13425      4448  TIP3      H2            -20.2003485882      -34.3599265004       12.8555149999  SOLV      4437            0.0000000000
     13426      4449  TIP3      OH2           -22.9569687291      -27.7080842629       16.3826125328  SOLV      4438            0.0000000000
     13427      4449  TIP3      H1            -22.1713615180      -27.1318997726       16.4524558772  SOLV      4438            0.0000000000
     13428      4449  TIP3      H2            -23.6176879804      -27.1205268552       15.9933425628  SOLV      4438            0.0000000000
     13429      4450  TIP3      OH2           -17.2605196628      -28.3782854023        9.6401678336  SOLV      4439            0.0000000000
     13430      4450  TIP3      H1            -17.1801181717      -27.4127209125        9.4852356888  SOLV      4439            0.0000000000
     13431      4450  TIP3      H2            -16.3317916100      -28.6687511211        9.5155623607  SOLV      4439            0.0000000000
     13432      4451  TIP3      OH2           -12.8440239573      -24.2807283139       23.6266977630  SOLV      4440            0.0000000000
     13433      4451  TIP3      H1            -12.8616612754      -25.2474019529       23.7590251074  SOLV      4440            0.0000000000
     13434      4451  TIP3      H2            -13.6830195135      -24.0289310796       24.0726362813  SOLV      4440            0.0000000000
     13435      4452  TIP3      OH2           -21.8100099741      -26.4484007661       24.8708837282  SOLV      4441            0.0000000000
     13436      4452  TIP3      H1            -21.7961864964      -25.4948542438       25.1062011782  SOLV      4441            0.0000000000
     13437      4452  TIP3      H2            -22.5012107441      -26.7740166143       25.4615121992  SOLV      4441            0.0000000000
     13438      4453  TIP3      OH2           -24.1045282836      -25.1679819602       14.4304166491  SOLV      4442            0.0000000000
     13439      4453  TIP3      H1            -24.6289911315      -25.3491181150       13.6306957601  SOLV      4442            0.0000000000
     13440      4453  TIP3      H2            -24.4885643150      -24.3298562451       14.7487810457  SOLV      4442            0.0000000000
     13441      4454  TIP3      OH2           -22.1629086901      -26.1535259190       10.8137219606  SOLV      4443            0.0000000000
     13442      4454  TIP3      H1            -21.5701082921      -26.8551930738       10.4660035184  SOLV      4443            0.0000000000
     13443      4454  TIP3      H2            -21.8210978214      -26.0444627483       11.7267628985  SOLV      4443            0.0000000000
     13444      4455  TIP3      OH2           -21.6245137912      -25.6915072913       13.4969144651  SOLV      4444            0.0000000000
     13445      4455  TIP3      H1            -22.5159059099      -25.5653102897       13.8965880871  SOLV      4444            0.0000000000
     13446      4455  TIP3      H2            -21.1374299906      -26.0669075382       14.2473456620  SOLV      4444            0.0000000000
     13447      4456  TIP3      OH2           -13.9864347055      -32.8303747443       26.4737953950  SOLV      4445            0.0000000000
     13448      4456  TIP3      H1            -14.8411548170      -32.5267199793       26.1292936133  SOLV      4445            0.0000000000
     13449      4456  TIP3      H2            -14.0193234672      -33.7736012603       26.1917388871  SOLV      4445            0.0000000000
     13450      4457  TIP3      OH2           -19.6196092202      -34.0692556712       11.1755048654  SOLV      4446            0.0000000000
     13451      4457  TIP3      H1            -19.9794449571      -34.3026163428       10.2974484003  SOLV      4446            0.0000000000
     13452      4457  TIP3      H2            -18.8105073501      -33.5898073199       10.9168781277  SOLV      4446            0.0000000000
     13453      4458  TIP3      OH2           -15.8798619362      -20.8245585709       24.6084413082  SOLV      4447            0.0000000000
     13454      4458  TIP3      H1            -15.9328404535      -20.5651415609       23.6700766935  SOLV      4447            0.0000000000
     13455      4458  TIP3      H2            -15.0936661177      -20.3244032608       24.9020305580  SOLV      4447            0.0000000000
     13456      4459  TIP3      OH2           -15.5810188177      -29.9104949671       21.4525168554  SOLV      4448            0.0000000000
     13457      4459  TIP3      H1            -15.3540305709      -29.3997181839       20.6459990147  SOLV      4448            0.0000000000
     13458      4459  TIP3      H2            -16.4020538197      -30.3792200986       21.1815137267  SOLV      4448            0.0000000000
     13459      4460  TIP3      OH2           -20.2514089616      -28.8190429513       25.1211607073  SOLV      4449            0.0000000000
     13460      4460  TIP3      H1            -20.7950211768      -29.4848467122       25.5763097461  SOLV      4449            0.0000000000
     13461      4460  TIP3      H2            -20.8782105066      -28.0759543633       25.0843369202  SOLV      4449            0.0000000000
     13462      4461  TIP3      OH2           -19.0624440754      -36.9767787897       14.2746484581  SOLV      4450            0.0000000000
     13463      4461  TIP3      H1            -18.4123089207      -36.6819874359       14.9246818890  SOLV      4450            0.0000000000
     13464      4461  TIP3      H2            -19.6470933598      -36.2014371263       14.1908439540  SOLV      4450            0.0000000000
     13465      4462  TIP3      OH2           -23.2806751510      -30.9713924332       13.4015338420  SOLV      4451            0.0000000000
     13466      4462  TIP3      H1            -23.6794432239      -30.0663740243       13.4288113898  SOLV      4451            0.0000000000
     13467      4462  TIP3      H2            -23.4457188422      -31.3048861401       14.2936400884  SOLV      4451            0.0000000000
     13468      4463  TIP3      OH2           -18.9870511282      -26.2828779850       23.9864079866  SOLV      4452            0.0000000000
     13469      4463  TIP3      H1            -19.9172118080      -26.4736506820       24.1848918725  SOLV      4452            0.0000000000
     13470      4463  TIP3      H2            -18.6993888358      -25.8753118115       24.8277608927  SOLV      4452            0.0000000000
     13471      4464  TIP3      OH2           -14.9890085893      -35.8035743865       13.2000850187  SOLV      4453            0.0000000000
     13472      4464  TIP3      H1            -15.5310759392      -36.2817665221       12.5297726984  SOLV      4453            0.0000000000
     13473      4464  TIP3      H2            -15.0558806233      -34.9011689173       12.8149332675  SOLV      4453            0.0000000000
     13474      4465  TIP3      OH2           -12.7158496532      -27.1767493350       23.9821847058  SOLV      4454            0.0000000000
     13475      4465  TIP3      H1            -13.6942114442      -27.2411168417       23.9020294177  SOLV      4454            0.0000000000
     13476      4465  TIP3      H2            -12.4558869249      -27.4986885184       23.0885594597  SOLV      4454            0.0000000000
     13477      4466  TIP3      OH2           -17.8618849430      -27.6109389664       12.3085537737  SOLV      4455            0.0000000000
     13478      4466  TIP3      H1            -18.1970434803      -28.2822656151       12.9195603750  SOLV      4455            0.0000000000
     13479      4466  TIP3      H2            -17.7740597687      -28.0977273445       11.4699293098  SOLV      4455            0.0000000000
     13480      4467  TIP3      OH2           -17.8298462992      -31.3243245505       20.6369245663  SOLV      4456            0.0000000000
     13481      4467  TIP3      H1            -18.7789607875      -31.4823772116       20.6764684910  SOLV      4456            0.0000000000
     13482      4467  TIP3      H2            -17.5263247963      -32.1243493447       20.1557257659  SOLV      4456            0.0000000000
     13483      4468  TIP3      OH2           -23.8837707024      -25.7026690620       22.6301016168  SOLV      4457            0.0000000000
     13484      4468  TIP3      H1            -23.4311430599      -24.9267457234       22.2391980891  SOLV      4457            0.0000000000
     13485      4468  TIP3      H2            -23.2264018880      -26.0258126243       23.2596056041  SOLV      4457            0.0000000000
     13486      4469  TIP3      OH2           -27.0417109456      -26.3142954167       16.2852024870  SOLV      4458            0.0000000000
     13487      4469  TIP3      H1            -27.8550712880      -26.4392763758       16.8214738435  SOLV      4458            0.0000000000
     13488      4469  TIP3      H2            -26.8528065951      -25.3694243843       16.4715413401  SOLV      4458            0.0000000000
     13489      4470  TIP3      OH2           -19.9487832983      -29.3736667400       22.4771093656  SOLV      4459            0.0000000000
     13490      4470  TIP3      H1            -20.0352614744      -29.2510796979       23.4485427542  SOLV      4459            0.0000000000
     13491      4470  TIP3      H2            -19.0100558056      -29.5925215379       22.4065953709  SOLV      4459            0.0000000000
     13492      4471  TIP3      OH2           -20.2871425779      -30.3009982394       11.2911278673  SOLV      4460            0.0000000000
     13493      4471  TIP3      H1            -19.7666892875      -30.5647230329       12.0860012450  SOLV      4460            0.0000000000
     13494      4471  TIP3      H2            -21.1664816961      -30.6325089099       11.5266284458  SOLV      4460            0.0000000000
     13495      4472  TIP3      OH2           -17.5982173470      -23.9467056011       22.9650637807  SOLV      4461            0.0000000000
     13496      4472  TIP3      H1            -18.3655370680      -24.5572355006       22.9593236745  SOLV      4461            0.0000000000
     13497      4472  TIP3      H2            -17.8182624331      -23.3426025075       22.2210865908  SOLV      4461            0.0000000000
     13498      4473  TIP3      OH2           -16.9659166943      -25.6126430429        9.4641059571  SOLV      4462            0.0000000000
     13499      4473  TIP3      H1            -16.6379295118      -24.8536202185        8.9560755360  SOLV      4462            0.0000000000
     13500      4473  TIP3      H2            -17.7697487389      -25.2059628639        9.8505910291  SOLV      4462            0.0000000000
     13501      4474  TIP3      OH2           -18.7054789293      -30.9698050969       13.4425386990  SOLV      4463            0.0000000000
     13502      4474  TIP3      H1            -18.8307062185      -31.6451469759       14.1424529208  SOLV      4463            0.0000000000
     13503      4474  TIP3      H2            -17.7345383349      -31.0356931018       13.3223124828  SOLV      4463            0.0000000000
     13504      4475  TIP3      OH2           -26.6024532250      -30.5678263712       11.3101586324  SOLV      4464            0.0000000000
     13505      4475  TIP3      H1            -26.3231591739      -31.4288234227       10.9529282391  SOLV      4464            0.0000000000
     13506      4475  TIP3      H2            -27.3095677878      -30.8222194871       11.9164181694  SOLV      4464            0.0000000000
     13507      4476  TIP3      OH2           -24.4642680022      -28.5652161625       13.4492572082  SOLV      4465            0.0000000000
     13508      4476  TIP3      H1            -25.3936226043      -28.4517191371       13.7431389186  SOLV      4465            0.0000000000
     13509      4476  TIP3      H2            -24.3597155496      -27.7484013718       12.9370554118  SOLV      4465            0.0000000000
     13510      4477  TIP3      OH2           -26.9769460562      -27.7243209013       14.0218715024  SOLV      4466            0.0000000000
     13511      4477  TIP3      H1            -27.2025875743      -27.0058853142       13.3887259494  SOLV      4466            0.0000000000
     13512      4477  TIP3      H2            -26.8858028349      -27.1959463158       14.8494740484  SOLV      4466            0.0000000000
     13513      4478  TIP3      OH2           -14.1238707682      -35.3681652742       25.5153386427  SOLV      4467            0.0000000000
     13514      4478  TIP3      H1            -14.8026586617      -36.0496063723       25.5362199042  SOLV      4467            0.0000000000
     13515      4478  TIP3      H2            -13.4293744050      -35.7817761050       24.9759170647  SOLV      4467            0.0000000000
     13516      4479  TIP3      OH2           -17.2144170087      -33.7363211177       19.4046919444  SOLV      4468            0.0000000000
     13517      4479  TIP3      H1            -17.8276859171      -34.4627021293       19.5520531735  SOLV      4468            0.0000000000
     13518      4479  TIP3      H2            -16.3910221244      -34.0882736855       19.8240910207  SOLV      4468            0.0000000000
     13519      4480  TIP3      OH2           -17.3931106543      -24.1796020113       18.8731714950  SOLV      4469            0.0000000000
     13520      4480  TIP3      H1            -17.8296157666      -23.7079853541       18.1269669013  SOLV      4469            0.0000000000
     13521      4480  TIP3      H2            -16.4508625533      -23.9935831890       18.6611231368  SOLV      4469            0.0000000000
     13522      4481  TIP3      OH2           -25.0614537151      -28.4980095796       10.3577149125  SOLV      4470            0.0000000000
     13523      4481  TIP3      H1            -25.6031451746      -29.1899864505       10.8026389938  SOLV      4470            0.0000000000
     13524      4481  TIP3      H2            -24.2900533981      -29.0265069383       10.0952400971  SOLV      4470            0.0000000000
     13525      4482  TIP3      OH2           -18.4877597711      -25.1930375468       26.5006324826  SOLV      4471            0.0000000000
     13526      4482  TIP3      H1            -18.4820047122      -25.8155475232       27.2559468273  SOLV      4471            0.0000000000
     13527      4482  TIP3      H2            -17.7303591150      -24.6106519067       26.7122448228  SOLV      4471            0.0000000000
     13528      4483  TIP3      OH2           -20.6999868832      -28.1293870158        9.5562435636  SOLV      4472            0.0000000000
     13529      4483  TIP3      H1            -20.3187897660      -28.8001955264       10.1573806693  SOLV      4472            0.0000000000
     13530      4483  TIP3      H2            -20.1319595515      -28.1996200414        8.7650141669  SOLV      4472            0.0000000000
     13531      4484  TIP3      OH2           -23.3806522013      -31.1766021204       10.6988240843  SOLV      4473            0.0000000000
     13532      4484  TIP3      H1            -23.4207047724      -31.1335362331       11.6784869924  SOLV      4473            0.0000000000
     13533      4484  TIP3      H2            -23.3458465852      -32.1489171933       10.5667736948  SOLV      4473            0.0000000000
     13534      4485  TIP3      OH2           -17.3910260366      -28.9798781195       24.4269262878  SOLV      4474            0.0000000000
     13535      4485  TIP3      H1            -16.7405246512      -28.3712208114       24.0275097621  SOLV      4474            0.0000000000
     13536      4485  TIP3      H2            -18.1806452019      -28.4190951382       24.5195924376  SOLV      4474            0.0000000000
     13537      4486  TIP3      OH2           -18.6039643679      -29.4192730925       28.4651054419  SOLV      4475            0.0000000000
     13538      4486  TIP3      H1            -17.6596551197      -29.4218426968       28.2457242455  SOLV      4475            0.0000000000
     13539      4486  TIP3      H2            -18.7461985498      -30.3790043697       28.5992657272  SOLV      4475            0.0000000000
     13540      4487  TIP3      OH2           -17.3135564818      -33.0813121072        9.9222471510  SOLV      4476            0.0000000000
     13541      4487  TIP3      H1            -17.5222593315      -33.4919426521        9.0574791001  SOLV      4476            0.0000000000
     13542      4487  TIP3      H2            -17.6519746960      -32.1731888011        9.7361147867  SOLV      4476            0.0000000000
     13543      4488  TIP3      OH2           -16.0925380127      -30.3431149680       26.3402805187  SOLV      4477            0.0000000000
     13544      4488  TIP3      H1            -16.6840265753      -29.8324370171       25.7384827774  SOLV      4477            0.0000000000
     13545      4488  TIP3      H2            -15.2241785827      -30.1166585880       25.9378265477  SOLV      4477            0.0000000000
     13546      4489  TIP3      OH2           -27.3723372133      -25.6347667106       12.3466695844  SOLV      4478            0.0000000000
     13547      4489  TIP3      H1            -26.4390280824      -25.6800336383       12.0658845750  SOLV      4478            0.0000000000
     13548      4489  TIP3      H2            -27.7545686008      -25.1657610721       11.5838382354  SOLV      4478            0.0000000000
     13549      4490  TIP3      OH2           -14.8208339078      -23.3460851140       18.5161671117  SOLV      4479            0.0000000000
     13550      4490  TIP3      H1            -14.5952298647      -22.9934578272       19.3961756601  SOLV      4479            0.0000000000
     13551      4490  TIP3      H2            -14.2187702123      -22.8555556340       17.9371134870  SOLV      4479            0.0000000000
     13552      4491  TIP3      OH2           -14.5958678855      -23.0962564796       21.3303816673  SOLV      4480            0.0000000000
     13553      4491  TIP3      H1            -15.0417686555      -23.9693539966       21.2828630122  SOLV      4480            0.0000000000
     13554      4491  TIP3      H2            -13.8323761450      -23.3307651630       21.8790972138  SOLV      4480            0.0000000000
     13555      4492  TIP3      OH2           -14.0998957975      -26.2863235265       27.0034266166  SOLV      4481            0.0000000000
     13556      4492  TIP3      H1            -14.8109883951      -26.1664699029       27.6627758774  SOLV      4481            0.0000000000
     13557      4492  TIP3      H2            -13.6492514019      -25.4177785804       27.0399186277  SOLV      4481            0.0000000000
     13558      4493  TIP3      OH2           -15.9268594447      -31.2146070901       13.2157593492  SOLV      4482            0.0000000000
     13559      4493  TIP3      H1            -15.2802544834      -30.5481082924       12.9086570808  SOLV      4482            0.0000000000
     13560      4493  TIP3      H2            -15.4702412073      -31.5720000316       14.0098173283  SOLV      4482            0.0000000000
     13561      4494  TIP3      OH2           -14.6414296038      -32.5273048279       15.2650286722  SOLV      4483            0.0000000000
     13562      4494  TIP3      H1            -15.3282888017      -32.9246967079       15.8468330167  SOLV      4483            0.0000000000
     13563      4494  TIP3      H2            -14.0073646060      -32.1524711818       15.9099030845  SOLV      4483            0.0000000000
     13564      4495  TIP3      OH2           -14.0741086367      -28.5569163801       19.5798143071  SOLV      4484            0.0000000000
     13565      4495  TIP3      H1            -13.5682973360      -29.2564000320       19.1190574006  SOLV      4484            0.0000000000
     13566      4495  TIP3      H2            -14.0962141933      -27.8424987655       18.9117513857  SOLV      4484            0.0000000000
     13567      4496  TIP3      OH2           -15.8438413534      -25.5834624879       21.5183961157  SOLV      4485            0.0000000000
     13568      4496  TIP3      H1            -16.5667214262      -25.1551714389       22.0164615180  SOLV      4485            0.0000000000
     13569      4496  TIP3      H2            -16.3306314671      -26.0278550821       20.7910634293  SOLV      4485            0.0000000000
     13570      4497  TIP3      OH2           -15.3182946431      -33.4588435533       11.7228223405  SOLV      4486            0.0000000000
     13571      4497  TIP3      H1            -16.0155851649      -33.3915422136       11.0304702041  SOLV      4486            0.0000000000
     13572      4497  TIP3      H2            -15.5875451919      -32.7049131835       12.2894925027  SOLV      4486            0.0000000000
     13573      4498  TIP3      OH2           -16.5249384881      -36.8676331200       11.1797477358  SOLV      4487            0.0000000000
     13574      4498  TIP3      H1            -16.8500645419      -36.1101124963       10.6797782162  SOLV      4487            0.0000000000
     13575      4498  TIP3      H2            -17.0770566707      -37.5719111507       10.8139637577  SOLV      4487            0.0000000000
     13576      4499  TIP3      OH2           -16.5403353963      -33.8642607278       16.7011127104  SOLV      4488            0.0000000000
     13577      4499  TIP3      H1            -16.5237820352      -34.8195178306       16.4714142666  SOLV      4488            0.0000000000
     13578      4499  TIP3      H2            -16.7239943411      -33.8710792540       17.6629699414  SOLV      4488            0.0000000000
     13579      4500  TIP3      OH2           -13.6987107576      -29.6697157867       25.2145248994  SOLV      4489            0.0000000000
     13580      4500  TIP3      H1            -12.9834233387      -30.3359833419       25.1057298579  SOLV      4489            0.0000000000
     13581      4500  TIP3      H2            -13.4675021501      -29.0070673337       24.5457776552  SOLV      4489            0.0000000000
     13582      4501  TIP3      OH2           -11.8449027853      -31.6028282202       25.3306351251  SOLV      4490            0.0000000000
     13583      4501  TIP3      H1            -12.5762949625      -32.0314722094       25.8302495679  SOLV      4490            0.0000000000
     13584      4501  TIP3      H2            -11.1356420328      -32.2570582489       25.5068923086  SOLV      4490            0.0000000000
     13585      4502  TIP3      OH2           -16.4086492488      -36.4553918998       15.6876779884  SOLV      4491            0.0000000000
     13586      4502  TIP3      H1            -16.1892886434      -37.3519503036       15.9690327209  SOLV      4491            0.0000000000
     13587      4502  TIP3      H2            -15.9292173296      -36.3725855187       14.8408096674  SOLV      4491            0.0000000000
     13588      4503  TIP3      OH2           -15.0551264636      -34.7717473113       20.5689105387  SOLV      4492            0.0000000000
     13589      4503  TIP3      H1            -14.1799116556      -34.6175861847       20.1543055771  SOLV      4492            0.0000000000
     13590      4503  TIP3      H2            -14.8653495493      -34.4706061378       21.4807681836  SOLV      4492            0.0000000000
     13591      4504  TIP3      OH2           -14.3683184588      -33.4772051155       22.8731357683  SOLV      4493            0.0000000000
     13592      4504  TIP3      H1            -15.0569505791      -33.1290524656       23.4830226789  SOLV      4493            0.0000000000
     13593      4504  TIP3      H2            -14.0278253404      -32.6557573529       22.4604197605  SOLV      4493            0.0000000000
     13594      4505  TIP3      OH2           -19.0085664779      -24.6125210965       15.0422316405  SOLV      4494            0.0000000000
     13595      4505  TIP3      H1            -18.4891615322      -24.6850993270       14.2148956834  SOLV      4494            0.0000000000
     13596      4505  TIP3      H2            -18.5193334568      -23.9285200606       15.5274548274  SOLV      4494            0.0000000000
     13597      4506  TIP3      OH2           -21.8361220355      -23.7954581132       25.7400330270  SOLV      4495            0.0000000000
     13598      4506  TIP3      H1            -21.4038504143      -23.7802546625       26.6200177712  SOLV      4495            0.0000000000
     13599      4506  TIP3      H2            -21.1985298327      -23.2596464882       25.2175495901  SOLV      4495            0.0000000000
     13600      4507  TIP3      OH2           -20.0260366888      -22.2669327974       24.3847246512  SOLV      4496            0.0000000000
     13601      4507  TIP3      H1            -19.3363254876      -22.7382142575       23.8954545707  SOLV      4496            0.0000000000
     13602      4507  TIP3      H2            -19.4810937339      -21.7031375208       24.9770841824  SOLV      4496            0.0000000000
     13603      4508  TIP3      OH2           -26.8772989263      -23.6050603683       23.1194268839  SOLV      4497            0.0000000000
     13604      4508  TIP3      H1            -27.7600471650      -23.6872176071       23.4989804423  SOLV      4497            0.0000000000
     13605      4508  TIP3      H2            -27.0829051611      -23.4032012241       22.1831619144  SOLV      4497            0.0000000000
     13606      4509  TIP3      OH2           -22.8344920814      -23.5800691477       21.1518177431  SOLV      4498            0.0000000000
     13607      4509  TIP3      H1            -23.5413474480      -23.4163075743       20.5017311199  SOLV      4498            0.0000000000
     13608      4509  TIP3      H2            -22.7208892058      -22.6917061133       21.5491722529  SOLV      4498            0.0000000000
     13609      4510  TIP3      OH2           -20.1740949823      -24.2502352122       21.6854450135  SOLV      4499            0.0000000000
     13610      4510  TIP3      H1            -21.1052842727      -24.0324998095       21.4795162990  SOLV      4499            0.0000000000
     13611      4510  TIP3      H2            -19.7020480012      -23.5273431362       21.2392192617  SOLV      4499            0.0000000000
     13612      4511  TIP3      OH2           -18.1535131627      -22.3562374488       20.8080909964  SOLV      4500            0.0000000000
     13613      4511  TIP3      H1            -18.2677615337      -21.4999363109       20.3410411959  SOLV      4500            0.0000000000
     13614      4511  TIP3      H2            -17.8575540469      -22.9403325278       20.0755940742  SOLV      4500            0.0000000000
     13615      4512  TIP3      OH2           -25.6243151117      -25.7063455597       20.5673628161  SOLV      4501            0.0000000000
     13616      4512  TIP3      H1            -25.5936844393      -26.5911625570       20.1902081249  SOLV      4501            0.0000000000
     13617      4512  TIP3      H2            -25.0311308912      -25.7843703079       21.3477612161  SOLV      4501            0.0000000000
     13618      4513  TIP3      OH2           -24.7412312435      -26.1814319667       11.7836903914  SOLV      4502            0.0000000000
     13619      4513  TIP3      H1            -23.8640978232      -25.9505301821       11.4142334524  SOLV      4502            0.0000000000
     13620      4513  TIP3      H2            -24.9737410906      -26.9216409291       11.1784742769  SOLV      4502            0.0000000000
     13621      4514  TIP3      OH2           -17.5308534183      -24.9353740234       12.7244536350  SOLV      4503            0.0000000000
     13622      4514  TIP3      H1            -17.6091502834      -25.9158940407       12.6381372108  SOLV      4503            0.0000000000
     13623      4514  TIP3      H2            -18.0328623276      -24.6452029407       11.9355297008  SOLV      4503            0.0000000000
     13624      4515  TIP3      OH2           -15.3537741912      -23.5271440704       24.6039736818  SOLV      4504            0.0000000000
     13625      4515  TIP3      H1            -16.1132797745      -23.8060744300       24.0488173507  SOLV      4504            0.0000000000
     13626      4515  TIP3      H2            -15.5142955728      -22.5613224111       24.6396770129  SOLV      4504            0.0000000000
     13627      4516  TIP3      OH2            -2.6214145208      -29.7375161163       12.1933575243  SOLV      4505            0.0000000000
     13628      4516  TIP3      H1             -2.9638751484      -28.8516272301       11.9543516360  SOLV      4505            0.0000000000
     13629      4516  TIP3      H2             -3.3616474211      -30.2944482568       11.8920098847  SOLV      4505            0.0000000000
     13630      4517  TIP3      OH2            -2.6072081850      -29.7893174013       16.0910693406  SOLV      4506            0.0000000000
     13631      4517  TIP3      H1             -2.2935154028      -30.0701049037       16.9683588973  SOLV      4506            0.0000000000
     13632      4517  TIP3      H2             -3.0012877764      -30.6079100909       15.7493166039  SOLV      4506            0.0000000000
     13633      4518  TIP3      OH2            -9.6971085293      -30.8151693888       19.7062960426  SOLV      4507            0.0000000000
     13634      4518  TIP3      H1             -9.3950721882      -31.5658623141       20.2556478975  SOLV      4507            0.0000000000
     13635      4518  TIP3      H2             -8.8578680662      -30.3560005450       19.5656986745  SOLV      4507            0.0000000000
     13636      4519  TIP3      OH2            -0.1535327198      -26.7465996733       12.8879115650  SOLV      4508            0.0000000000
     13637      4519  TIP3      H1             -0.4162847885      -27.4209887476       13.5279110713  SOLV      4508            0.0000000000
     13638      4519  TIP3      H2              0.1124015535      -26.0056188080       13.4574766068  SOLV      4508            0.0000000000
     13639      4520  TIP3      OH2            -9.9191864486      -26.7294353084       16.9152845804  SOLV      4509            0.0000000000
     13640      4520  TIP3      H1            -10.0014948979      -27.7082678336       16.9186005662  SOLV      4509            0.0000000000
     13641      4520  TIP3      H2             -8.9519789770      -26.6368045969       16.8562665137  SOLV      4509            0.0000000000
     13642      4521  TIP3      OH2           -12.9574079366      -34.7918879633       14.8196847453  SOLV      4510            0.0000000000
     13643      4521  TIP3      H1            -13.4145613988      -33.9534844478       15.0111228673  SOLV      4510            0.0000000000
     13644      4521  TIP3      H2            -13.6430454314      -35.2464499215       14.2969913769  SOLV      4510            0.0000000000
     13645      4522  TIP3      OH2           -12.3128832676      -31.8278200784       16.5774024995  SOLV      4511            0.0000000000
     13646      4522  TIP3      H1            -11.8443690557      -32.6418007049       16.8762278774  SOLV      4511            0.0000000000
     13647      4522  TIP3      H2            -11.7068683455      -31.4881919826       15.9060496930  SOLV      4511            0.0000000000
     13648      4523  TIP3      OH2            -3.6707619467      -22.1319572943       13.0618004423  SOLV      4512            0.0000000000
     13649      4523  TIP3      H1             -3.2584224968      -22.8568202133       12.5477872024  SOLV      4512            0.0000000000
     13650      4523  TIP3      H2             -3.8366992614      -22.5598443198       13.9102914578  SOLV      4512            0.0000000000
     13651      4524  TIP3      OH2            -4.6897026849      -27.5184231361       16.5469205024  SOLV      4513            0.0000000000
     13652      4524  TIP3      H1             -4.2919828163      -28.2886961403       16.1079700803  SOLV      4513            0.0000000000
     13653      4524  TIP3      H2             -3.8624646753      -27.0518049996       16.7958524709  SOLV      4513            0.0000000000
     13654      4525  TIP3      OH2             5.4932957866      -33.9202463943       16.3301648893  SOLV      4514            0.0000000000
     13655      4525  TIP3      H1              4.9766560453      -33.1075670178       16.3598657210  SOLV      4514            0.0000000000
     13656      4525  TIP3      H2              5.1693123326      -34.3175417325       15.5264215000  SOLV      4514            0.0000000000
     13657      4526  TIP3      OH2            -0.5605215737      -32.5844891578       16.8716636269  SOLV      4515            0.0000000000
     13658      4526  TIP3      H1             -0.5030177826      -33.5103060792       17.1310272516  SOLV      4515            0.0000000000
     13659      4526  TIP3      H2             -0.9156088820      -32.6582626208       15.9609650224  SOLV      4515            0.0000000000
     13660      4527  TIP3      OH2            -7.2440488315      -35.9423351977       16.4958233039  SOLV      4516            0.0000000000
     13661      4527  TIP3      H1             -7.5206301826      -35.2832951351       15.8222505010  SOLV      4516            0.0000000000
     13662      4527  TIP3      H2             -7.7723457056      -36.7145456139       16.2423446005  SOLV      4516            0.0000000000
     13663      4528  TIP3      OH2            -0.1187298670      -34.7157320773       12.8849472764  SOLV      4517            0.0000000000
     13664      4528  TIP3      H1              0.3321898368      -35.4282364088       13.3657316594  SOLV      4517            0.0000000000
     13665      4528  TIP3      H2              0.1628513802      -34.8497559139       11.9685808979  SOLV      4517            0.0000000000
     13666      4529  TIP3      OH2           -10.9405936735      -33.9624597755       17.5142874728  SOLV      4518            0.0000000000
     13667      4529  TIP3      H1            -10.0997447928      -34.0878829291       18.0165467767  SOLV      4518            0.0000000000
     13668      4529  TIP3      H2            -10.7243602012      -34.5083732982       16.7294603144  SOLV      4518            0.0000000000
     13669      4530  TIP3      OH2            -6.4177237355      -31.9280522296       15.5890798433  SOLV      4519            0.0000000000
     13670      4530  TIP3      H1             -5.4787702864      -32.1973122842       15.6683423050  SOLV      4519            0.0000000000
     13671      4530  TIP3      H2             -6.8353267743      -32.7583699477       15.2699455854  SOLV      4519            0.0000000000
     13672      4531  TIP3      OH2             6.6192921974      -31.8627327755       18.9427349785  SOLV      4520            0.0000000000
     13673      4531  TIP3      H1              6.1358458788      -31.2917379547       18.3177603787  SOLV      4520            0.0000000000
     13674      4531  TIP3      H2              5.8436323166      -32.1097826452       19.5032073780  SOLV      4520            0.0000000000
     13675      4532  TIP3      OH2            -3.7339201328      -27.5509854053       10.8784509540  SOLV      4521            0.0000000000
     13676      4532  TIP3      H1             -4.1945227294      -27.7246417062       10.0438130031  SOLV      4521            0.0000000000
     13677      4532  TIP3      H2             -4.2050359920      -26.7457458774       11.1845749758  SOLV      4521            0.0000000000
     13678      4533  TIP3      OH2            -6.1038552141      -28.3330563083       18.7732343543  SOLV      4522            0.0000000000
     13679      4533  TIP3      H1             -6.7047382001      -27.6411444502       19.1276956994  SOLV      4522            0.0000000000
     13680      4533  TIP3      H2             -5.6971381346      -27.8716036629       18.0091590876  SOLV      4522            0.0000000000
     13681      4534  TIP3      OH2            -8.5623314936      -34.5817310209       18.5466171647  SOLV      4523            0.0000000000
     13682      4534  TIP3      H1             -7.7945949391      -34.0710446278       18.8593142182  SOLV      4523            0.0000000000
     13683      4534  TIP3      H2             -8.1562259573      -35.2296017471       17.9415591115  SOLV      4523            0.0000000000
     13684      4535  TIP3      OH2            -7.8074918081      -26.3520190589       19.7712659709  SOLV      4524            0.0000000000
     13685      4535  TIP3      H1             -8.0656466217      -25.4771564059       19.4143311155  SOLV      4524            0.0000000000
     13686      4535  TIP3      H2             -8.6114628258      -26.5453412597       20.3009534768  SOLV      4524            0.0000000000
     13687      4536  TIP3      OH2           -13.9476004625      -29.4688235806       12.1169592863  SOLV      4525            0.0000000000
     13688      4536  TIP3      H1            -14.3535586697      -29.1734022397       11.2821816460  SOLV      4525            0.0000000000
     13689      4536  TIP3      H2            -13.6143498044      -28.6216321620       12.4810549107  SOLV      4525            0.0000000000
     13690      4537  TIP3      OH2             0.5004207190      -24.2959766758       14.5265718104  SOLV      4526            0.0000000000
     13691      4537  TIP3      H1             -0.3897900379      -24.4005869794       14.9375606536  SOLV      4526            0.0000000000
     13692      4537  TIP3      H2              0.3868548105      -23.4383496251       14.0704778345  SOLV      4526            0.0000000000
     13693      4538  TIP3      OH2            -2.5187711335      -23.8885717186       11.2446599342  SOLV      4527            0.0000000000
     13694      4538  TIP3      H1             -2.0201361616      -24.7201626950       11.0698632261  SOLV      4527            0.0000000000
     13695      4538  TIP3      H2             -1.8816490377      -23.2440454852       10.8576379784  SOLV      4527            0.0000000000
     13696      4539  TIP3      OH2            -1.0653671839      -26.0421402017       10.3859843392  SOLV      4528            0.0000000000
     13697      4539  TIP3      H1             -1.5707505301      -26.8132937330       10.0964332564  SOLV      4528            0.0000000000
     13698      4539  TIP3      H2             -0.6537279362      -26.3759195275       11.2138988993  SOLV      4528            0.0000000000
     13699      4540  TIP3      OH2             2.7436247588      -25.2370411758       17.9699675094  SOLV      4529            0.0000000000
     13700      4540  TIP3      H1              2.5829687122      -26.0047289357       17.3792633676  SOLV      4529            0.0000000000
     13701      4540  TIP3      H2              2.5310044202      -24.4842060280       17.3777359330  SOLV      4529            0.0000000000
     13702      4541  TIP3      OH2            -4.3255212843      -31.2382398308       10.5738244524  SOLV      4530            0.0000000000
     13703      4541  TIP3      H1             -5.1444512569      -30.7342494088       10.3895286829  SOLV      4530            0.0000000000
     13704      4541  TIP3      H2             -3.9188167824      -31.2909597949        9.6928150555  SOLV      4530            0.0000000000
     13705      4542  TIP3      OH2            -4.7915252452      -33.3739369299        7.6555951108  SOLV      4531            0.0000000000
     13706      4542  TIP3      H1             -4.1196932901      -32.8906508002        8.1673852293  SOLV      4531            0.0000000000
     13707      4542  TIP3      H2             -4.2157773941      -33.9773947337        7.1415980630  SOLV      4531            0.0000000000
     13708      4543  TIP3      OH2             4.7137877605      -28.7522943989       16.4708158372  SOLV      4532            0.0000000000
     13709      4543  TIP3      H1              3.8409461750      -28.2967627590       16.4881494138  SOLV      4532            0.0000000000
     13710      4543  TIP3      H2              4.9933002464      -28.5304485961       15.5534576978  SOLV      4532            0.0000000000
     13711      4544  TIP3      OH2            -0.8409571392      -30.4210448982       10.2380737913  SOLV      4533            0.0000000000
     13712      4544  TIP3      H1             -1.4036375453      -30.1947287770       11.0159205429  SOLV      4533            0.0000000000
     13713      4544  TIP3      H2             -0.0016609292      -30.6491378612       10.6873780404  SOLV      4533            0.0000000000
     13714      4545  TIP3      OH2             1.4612541604      -29.9886492250       19.3719561965  SOLV      4534            0.0000000000
     13715      4545  TIP3      H1              1.3798424721      -29.1653145915       19.8817754983  SOLV      4534            0.0000000000
     13716      4545  TIP3      H2              0.5894410995      -30.0137883318       18.9277700025  SOLV      4534            0.0000000000
     13717      4546  TIP3      OH2            -8.5223626232      -30.4677982897       14.4527013607  SOLV      4535            0.0000000000
     13718      4546  TIP3      H1             -8.9701301936      -31.0491007183       13.7985339560  SOLV      4535            0.0000000000
     13719      4546  TIP3      H2             -7.7793031390      -31.0315262299       14.7527364792  SOLV      4535            0.0000000000
     13720      4547  TIP3      OH2            -7.2374852710      -26.3425576047       15.9010251401  SOLV      4536            0.0000000000
     13721      4547  TIP3      H1             -7.4491377768      -26.6809039796       15.0164101466  SOLV      4536            0.0000000000
     13722      4547  TIP3      H2             -6.3557389754      -26.7354148079       16.0678356659  SOLV      4536            0.0000000000
     13723      4548  TIP3      OH2            -7.1876433659      -30.7890504145       18.0314096371  SOLV      4537            0.0000000000
     13724      4548  TIP3      H1             -6.8861549895      -31.0700191698       17.1397413125  SOLV      4537            0.0000000000
     13725      4548  TIP3      H2             -6.7443257892      -29.9237517769       18.1459834297  SOLV      4537            0.0000000000
     13726      4549  TIP3      OH2            -1.8843991936      -24.3858685691       15.7620909016  SOLV      4538            0.0000000000
     13727      4549  TIP3      H1             -2.0450872590      -23.5771807833       16.2805634314  SOLV      4538            0.0000000000
     13728      4549  TIP3      H2             -2.0890424840      -25.1033110023       16.3940255358  SOLV      4538            0.0000000000
     13729      4550  TIP3      OH2            -5.7803157989      -25.2145034034       21.2452821906  SOLV      4539            0.0000000000
     13730      4550  TIP3      H1             -6.4081924857      -24.5984496555       21.6832300699  SOLV      4539            0.0000000000
     13731      4550  TIP3      H2             -6.4104855757      -25.7384530964       20.7065048818  SOLV      4539            0.0000000000
     13732      4551  TIP3      OH2            -2.4553555912      -31.9066272851        8.5403564840  SOLV      4540            0.0000000000
     13733      4551  TIP3      H1             -1.8855131075      -31.2714986541        9.0283000248  SOLV      4540            0.0000000000
     13734      4551  TIP3      H2             -2.1902605024      -31.7109391823        7.6077084732  SOLV      4540            0.0000000000
     13735      4552  TIP3      OH2            -8.1967504199      -29.6888505552       22.3662057995  SOLV      4541            0.0000000000
     13736      4552  TIP3      H1             -8.1806886237      -28.7697287432       22.7024666298  SOLV      4541            0.0000000000
     13737      4552  TIP3      H2             -9.1591790978      -29.8691881509       22.4015298759  SOLV      4541            0.0000000000
     13738      4553  TIP3      OH2            -4.9924907331      -25.1151541172       11.2850743722  SOLV      4542            0.0000000000
     13739      4553  TIP3      H1             -4.1767786672      -24.5811008836       11.3500581960  SOLV      4542            0.0000000000
     13740      4553  TIP3      H2             -5.6071486644      -24.5100512042       10.8516354769  SOLV      4542            0.0000000000
     13741      4554  TIP3      OH2            -7.8516358534      -23.5716689109       22.1105560897  SOLV      4543            0.0000000000
     13742      4554  TIP3      H1             -8.2094208686      -23.4964270098       21.2050109764  SOLV      4543            0.0000000000
     13743      4554  TIP3      H2             -8.6581237261      -23.7856417915       22.6321060425  SOLV      4543            0.0000000000
     13744      4555  TIP3      OH2            -9.9009490076      -32.0021460139       12.5363888606  SOLV      4544            0.0000000000
     13745      4555  TIP3      H1            -10.6142449543      -31.6257220660       11.9795401038  SOLV      4544            0.0000000000
     13746      4555  TIP3      H2            -10.1001021857      -32.9453325671       12.5138202375  SOLV      4544            0.0000000000
     13747      4556  TIP3      OH2             0.6972422345      -25.8172069365        4.5115874579  SOLV      4545            0.0000000000
     13748      4556  TIP3      H1              0.7755933683      -24.8507583882        4.3573456238  SOLV      4545            0.0000000000
     13749      4556  TIP3      H2              1.6274366260      -26.1039029315        4.3928071565  SOLV      4545            0.0000000000
     13750      4557  TIP3      OH2           -12.0784899035      -28.1937241411       21.5672597931  SOLV      4546            0.0000000000
     13751      4557  TIP3      H1            -12.7540764835      -28.3840369713       20.8826541358  SOLV      4546            0.0000000000
     13752      4557  TIP3      H2            -11.6911035103      -29.0747941926       21.7407016537  SOLV      4546            0.0000000000
     13753      4558  TIP3      OH2           -13.5295347158      -26.2728013126       17.8776155771  SOLV      4547            0.0000000000
     13754      4558  TIP3      H1            -12.5649432118      -26.2963020668       17.8120166841  SOLV      4547            0.0000000000
     13755      4558  TIP3      H2            -13.6656174265      -25.4793234669       18.4188438147  SOLV      4547            0.0000000000
     13756      4559  TIP3      OH2             5.1239988155      -21.7063553210       18.4714011828  SOLV      4548            0.0000000000
     13757      4559  TIP3      H1              5.1036360787      -22.6703564559       18.6193361396  SOLV      4548            0.0000000000
     13758      4559  TIP3      H2              4.2902650975      -21.4486083335       18.9288204913  SOLV      4548            0.0000000000
     13759      4560  TIP3      OH2            -3.8268063482      -23.9392139123       19.8150037621  SOLV      4549            0.0000000000
     13760      4560  TIP3      H1             -3.8677691120      -23.0063321809       20.1200166875  SOLV      4549            0.0000000000
     13761      4560  TIP3      H2             -4.5536351504      -24.3358854561       20.3450743636  SOLV      4549            0.0000000000
     13762      4561  TIP3      OH2            -6.1590609067      -22.6239836257        9.3116053233  SOLV      4550            0.0000000000
     13763      4561  TIP3      H1             -6.6707200324      -22.7733239832        8.4988131361  SOLV      4550            0.0000000000
     13764      4561  TIP3      H2             -6.5118276472      -21.7704417824        9.6282301597  SOLV      4550            0.0000000000
     13765      4562  TIP3      OH2           -11.8200257274      -24.1532148435       13.1837233165  SOLV      4551            0.0000000000
     13766      4562  TIP3      H1            -11.3584387219      -24.2288216628       14.0486087605  SOLV      4551            0.0000000000
     13767      4562  TIP3      H2            -12.3227378655      -24.9862511176       13.1700551386  SOLV      4551            0.0000000000
     13768      4563  TIP3      OH2            -4.2123375568      -23.5985185085        5.6910848308  SOLV      4552            0.0000000000
     13769      4563  TIP3      H1             -3.6232937727      -24.3014612684        5.3382854253  SOLV      4552            0.0000000000
     13770      4563  TIP3      H2             -3.8592255339      -23.4869428213        6.5993543165  SOLV      4552            0.0000000000
     13771      4564  TIP3      OH2            -3.6674599990      -23.1165139468        8.3733570154  SOLV      4553            0.0000000000
     13772      4564  TIP3      H1             -4.5572825525      -23.0071373399        8.7790254446  SOLV      4553            0.0000000000
     13773      4564  TIP3      H2             -3.1715894189      -23.4970645995        9.1158813761  SOLV      4553            0.0000000000
     13774      4565  TIP3      OH2             4.0127162269      -30.2741697469       21.4251346382  SOLV      4554            0.0000000000
     13775      4565  TIP3      H1              3.1463446094      -30.0244733135       21.0640054262  SOLV      4554            0.0000000000
     13776      4565  TIP3      H2              4.0973441964      -31.1880112079       21.0798324432  SOLV      4554            0.0000000000
     13777      4566  TIP3      OH2           -10.0262768765      -26.3821720984       21.3789017159  SOLV      4555            0.0000000000
     13778      4566  TIP3      H1             -9.5556294140      -26.5290216663       22.2214878736  SOLV      4555            0.0000000000
     13779      4566  TIP3      H2            -10.7803596445      -27.0039444602       21.4585471353  SOLV      4555            0.0000000000
     13780      4567  TIP3      OH2             1.6374233368      -32.6112455574       20.4892066994  SOLV      4556            0.0000000000
     13781      4567  TIP3      H1              1.0718973518      -32.8478845808       21.2571460377  SOLV      4556            0.0000000000
     13782      4567  TIP3      H2              1.2220979741      -31.8001774232       20.1528239737  SOLV      4556            0.0000000000
     13783      4568  TIP3      OH2            -1.6644534381      -31.4918223707        5.9896910388  SOLV      4557            0.0000000000
     13784      4568  TIP3      H1             -2.0661550955      -31.6978729796        5.1244407114  SOLV      4557            0.0000000000
     13785      4568  TIP3      H2             -0.8659659678      -31.0035672120        5.7153949087  SOLV      4557            0.0000000000
     13786      4569  TIP3      OH2            -6.5576548359      -32.9708870518       19.5453599347  SOLV      4558            0.0000000000
     13787      4569  TIP3      H1             -7.1777135846      -32.8103461065       20.2905651901  SOLV      4558            0.0000000000
     13788      4569  TIP3      H2             -6.7423364850      -32.1786976651       18.9922008696  SOLV      4558            0.0000000000
     13789      4570  TIP3      OH2            -7.9670355753      -34.0412146990       14.6825156639  SOLV      4559            0.0000000000
     13790      4570  TIP3      H1             -8.8838200949      -34.3766270072       14.7511618549  SOLV      4559            0.0000000000
     13791      4570  TIP3      H2             -7.7435653762      -34.3201631717       13.7595273818  SOLV      4559            0.0000000000
     13792      4571  TIP3      OH2            -2.9344259376      -33.1996075559       11.9614005699  SOLV      4560            0.0000000000
     13793      4571  TIP3      H1             -3.4641929241      -32.5308709072       11.4774762979  SOLV      4560            0.0000000000
     13794      4571  TIP3      H2             -2.4334202985      -33.6276147084       11.2424656923  SOLV      4560            0.0000000000
     13795      4572  TIP3      OH2            -1.1297152871      -30.3089229454       22.5729938613  SOLV      4561            0.0000000000
     13796      4572  TIP3      H1             -1.4337861488      -31.0057045674       23.1964745425  SOLV      4561            0.0000000000
     13797      4572  TIP3      H2             -0.1921632812      -30.2384927089       22.8432246994  SOLV      4561            0.0000000000
     13798      4573  TIP3      OH2            -1.4447656404      -32.8419354580       14.2964587183  SOLV      4562            0.0000000000
     13799      4573  TIP3      H1             -2.1042724479      -32.6465710367       13.5982219290  SOLV      4562            0.0000000000
     13800      4573  TIP3      H2             -1.0096827592      -33.6052157595       13.8447297210  SOLV      4562            0.0000000000
     13801      4574  TIP3      OH2            -8.4701974480      -32.5828405491       21.4571720051  SOLV      4563            0.0000000000
     13802      4574  TIP3      H1             -8.3217818105      -31.9309760549       22.1560391116  SOLV      4563            0.0000000000
     13803      4574  TIP3      H2             -8.6456212435      -33.3983315884       21.9811008371  SOLV      4563            0.0000000000
     13804      4575  TIP3      OH2            -8.2137446492      -37.8203522954        8.9845876677  SOLV      4564            0.0000000000
     13805      4575  TIP3      H1             -8.2301031056      -37.8113553762        9.9512375776  SOLV      4564            0.0000000000
     13806      4575  TIP3      H2             -8.9874102324      -37.2814702021        8.7512949688  SOLV      4564            0.0000000000
     13807      4576  TIP3      OH2           -12.6442723578      -37.4193216606       12.7494106154  SOLV      4565            0.0000000000
     13808      4576  TIP3      H1            -12.4095343830      -36.9549995604       11.9177104101  SOLV      4565            0.0000000000
     13809      4576  TIP3      H2            -13.4178853192      -36.8965661698       13.0133479904  SOLV      4565            0.0000000000
     13810      4577  TIP3      OH2            -1.2423361565      -30.5692944256       18.5012482779  SOLV      4566            0.0000000000
     13811      4577  TIP3      H1             -0.9165209461      -31.2652138644       17.8826642877  SOLV      4566            0.0000000000
     13812      4577  TIP3      H2             -1.5505704083      -31.1378058549       19.2387561673  SOLV      4566            0.0000000000
     13813      4578  TIP3      OH2            -4.8378510300      -35.5408361892       15.0891569441  SOLV      4567            0.0000000000
     13814      4578  TIP3      H1             -5.5181084995      -35.5075113744       15.7868820676  SOLV      4567            0.0000000000
     13815      4578  TIP3      H2             -4.0045251456      -35.4337211352       15.5887793892  SOLV      4567            0.0000000000
     13816      4579  TIP3      OH2           -10.3428901536      -35.4416484521       15.2564677422  SOLV      4568            0.0000000000
     13817      4579  TIP3      H1            -11.2665517912      -35.2505612971       14.9675135186  SOLV      4568            0.0000000000
     13818      4579  TIP3      H2            -10.3759647085      -36.4090515578       15.3694971742  SOLV      4568            0.0000000000
     13819      4580  TIP3      OH2            -7.4683083982      -35.0113231494       12.2225569297  SOLV      4569            0.0000000000
     13820      4580  TIP3      H1             -6.5683976295      -35.3101568178       11.9859818491  SOLV      4569            0.0000000000
     13821      4580  TIP3      H2             -7.9796287226      -35.1493150838       11.4008551236  SOLV      4569            0.0000000000
     13822      4581  TIP3      OH2            -9.1643899567      -34.9709969696        9.9766639931  SOLV      4570            0.0000000000
     13823      4581  TIP3      H1             -9.8976731144      -35.2915216813        9.4206483171  SOLV      4570            0.0000000000
     13824      4581  TIP3      H2             -8.5758715597      -34.6009178475        9.2870616239  SOLV      4570            0.0000000000
     13825      4582  TIP3      OH2             2.0754995339      -18.2720145577       19.4683533247  SOLV      4571            0.0000000000
     13826      4582  TIP3      H1              2.0250222588      -17.9869139102       18.5394427175  SOLV      4571            0.0000000000
     13827      4582  TIP3      H2              2.8375858845      -17.7569276735       19.7936272597  SOLV      4571            0.0000000000
     13828      4583  TIP3      OH2            -8.4000693241      -27.1664550892       23.6443632692  SOLV      4572            0.0000000000
     13829      4583  TIP3      H1             -7.6122228543      -26.8510664735       24.1283959900  SOLV      4572            0.0000000000
     13830      4583  TIP3      H2             -9.0664676209      -27.1515295719       24.3598041530  SOLV      4572            0.0000000000
     13831      4584  TIP3      OH2            -3.7820509672      -32.6905130341       16.2822709254  SOLV      4573            0.0000000000
     13832      4584  TIP3      H1             -3.1394978599      -33.1708213124       15.7363564723  SOLV      4573            0.0000000000
     13833      4584  TIP3      H2             -3.7158019671      -33.1654772344       17.1278788245  SOLV      4573            0.0000000000
     13834      4585  TIP3      OH2            -3.9575861024      -33.7831177158       19.2676846792  SOLV      4574            0.0000000000
     13835      4585  TIP3      H1             -4.8657111849      -33.4371347126       19.3979104831  SOLV      4574            0.0000000000
     13836      4585  TIP3      H2             -3.4084198216      -33.1106369555       19.7071533319  SOLV      4574            0.0000000000
     13837      4586  TIP3      OH2            -6.6650862555      -29.7621528735       10.0426734100  SOLV      4575            0.0000000000
     13838      4586  TIP3      H1             -7.3778795377      -30.4286050048        9.9304374152  SOLV      4575            0.0000000000
     13839      4586  TIP3      H2             -6.8734811514      -29.4215786573       10.9484079710  SOLV      4575            0.0000000000
     13840      4587  TIP3      OH2             2.3322841048      -27.4084669598       16.3034701429  SOLV      4576            0.0000000000
     13841      4587  TIP3      H1              2.5325196016      -26.8789600079       15.5053155290  SOLV      4576            0.0000000000
     13842      4587  TIP3      H2              1.4869386595      -27.8472020831       16.0529930520  SOLV      4576            0.0000000000
     13843      4588  TIP3      OH2            -2.2170964317      -36.2822232410        8.1615441710  SOLV      4577            0.0000000000
     13844      4588  TIP3      H1             -2.7871695622      -36.8712306653        8.6733947370  SOLV      4577            0.0000000000
     13845      4588  TIP3      H2             -1.9189062782      -35.6352019930        8.8328624491  SOLV      4577            0.0000000000
     13846      4589  TIP3      OH2            -2.6210159141      -26.5280817687       20.0083638502  SOLV      4578            0.0000000000
     13847      4589  TIP3      H1             -2.3869215863      -26.7247694048       20.9217884100  SOLV      4578            0.0000000000
     13848      4589  TIP3      H2             -3.0365906715      -25.6490926224       20.0732508352  SOLV      4578            0.0000000000
     13849      4590  TIP3      OH2            -1.3453051413      -34.1694678092        9.7632929815  SOLV      4579            0.0000000000
     13850      4590  TIP3      H1             -0.3983226727      -34.0033283770        9.9298624484  SOLV      4579            0.0000000000
     13851      4590  TIP3      H2             -1.6214679780      -33.3687396909        9.2732356031  SOLV      4579            0.0000000000
     13852      4591  TIP3      OH2            -9.6832469643      -29.4844696724       16.7714673298  SOLV      4580            0.0000000000
     13853      4591  TIP3      H1             -9.3112014748      -29.7930480890       15.9189191320  SOLV      4580            0.0000000000
     13854      4591  TIP3      H2             -9.2831000079      -30.1048191871       17.3975293289  SOLV      4580            0.0000000000
     13855      4592  TIP3      OH2            -5.1961046695      -28.2629486911        8.3007596372  SOLV      4581            0.0000000000
     13856      4592  TIP3      H1             -5.6889850853      -27.4084098014        8.3153629726  SOLV      4581            0.0000000000
     13857      4592  TIP3      H2             -5.7497212829      -28.8103982913        8.9001240997  SOLV      4581            0.0000000000
     13858      4593  TIP3      OH2           -10.8600558903      -30.3417751074       22.9197773274  SOLV      4582            0.0000000000
     13859      4593  TIP3      H1            -10.7667836785      -30.4976892157       23.8797779176  SOLV      4582            0.0000000000
     13860      4593  TIP3      H2            -11.5769319776      -30.9628976096       22.6967262273  SOLV      4582            0.0000000000
     13861      4594  TIP3      OH2            -3.6238159276      -29.1407291771       23.1412213968  SOLV      4583            0.0000000000
     13862      4594  TIP3      H1             -4.2585423051      -29.7562137376       22.7322976832  SOLV      4583            0.0000000000
     13863      4594  TIP3      H2             -2.7796112534      -29.4444219168       22.7477914169  SOLV      4583            0.0000000000
     13864      4595  TIP3      OH2            -1.0585498290      -23.9508246276       18.9836486308  SOLV      4584            0.0000000000
     13865      4595  TIP3      H1             -2.0209747458      -23.9785329996       19.1262936365  SOLV      4584            0.0000000000
     13866      4595  TIP3      H2             -0.7757378753      -23.4297865895       19.7653272968  SOLV      4584            0.0000000000
     13867      4596  TIP3      OH2             2.9678806428      -33.2302535554        8.0818941724  SOLV      4585            0.0000000000
     13868      4596  TIP3      H1              2.4210879920      -33.7120316285        7.4185087977  SOLV      4585            0.0000000000
     13869      4596  TIP3      H2              2.9052720737      -32.3320688181        7.6849425689  SOLV      4585            0.0000000000
     13870      4597  TIP3      OH2             5.2426025777      -24.6217809858       18.8466354814  SOLV      4586            0.0000000000
     13871      4597  TIP3      H1              4.2651266121      -24.6769576697       18.7551426102  SOLV      4586            0.0000000000
     13872      4597  TIP3      H2              5.5073179040      -24.9421283627       17.9540542805  SOLV      4586            0.0000000000
     13873      4598  TIP3      OH2             0.1153508898      -25.0443404989        7.1881571105  SOLV      4587            0.0000000000
     13874      4598  TIP3      H1             -0.2440979434      -25.7073714510        7.7953416349  SOLV      4587            0.0000000000
     13875      4598  TIP3      H2              0.1894787998      -25.5297009603        6.3475135833  SOLV      4587            0.0000000000
     13876      4599  TIP3      OH2             0.0056242596      -28.7540315694       15.4868029146  SOLV      4588            0.0000000000
     13877      4599  TIP3      H1             -0.9319138270      -28.9932128199       15.6281585938  SOLV      4588            0.0000000000
     13878      4599  TIP3      H2              0.3193088542      -29.5550923244       15.0183907573  SOLV      4588            0.0000000000
     13879      4600  TIP3      OH2            -8.6861517478      -26.4543377638       13.0627773260  SOLV      4589            0.0000000000
     13880      4600  TIP3      H1             -8.7592851925      -25.6525631353       12.5088555080  SOLV      4589            0.0000000000
     13881      4600  TIP3      H2             -9.6136072199      -26.6698078620       13.2108659439  SOLV      4589            0.0000000000
     13882      4601  TIP3      OH2           -13.0653794113      -33.3904627617       10.1046140630  SOLV      4590            0.0000000000
     13883      4601  TIP3      H1            -12.6227834623      -32.5467907192       10.3404975794  SOLV      4590            0.0000000000
     13884      4601  TIP3      H2            -13.8284588488      -33.3784095184       10.7233776350  SOLV      4590            0.0000000000
     13885      4602  TIP3      OH2            -7.3913738481      -28.8430444914       12.4605959267  SOLV      4591            0.0000000000
     13886      4602  TIP3      H1             -7.7288137222      -27.9507951560       12.6741177946  SOLV      4591            0.0000000000
     13887      4602  TIP3      H2             -7.7274402416      -29.3651450619       13.2135980229  SOLV      4591            0.0000000000
     13888      4603  TIP3      OH2            -5.9944900919      -23.0481815967       17.7289177685  SOLV      4592            0.0000000000
     13889      4603  TIP3      H1             -5.5760919682      -22.3149294744       17.2308719952  SOLV      4592            0.0000000000
     13890      4603  TIP3      H2             -5.2275715495      -23.4263599176       18.1864166543  SOLV      4592            0.0000000000
     13891      4604  TIP3      OH2            -9.5350061865      -24.0846036876       11.5633753405  SOLV      4593            0.0000000000
     13892      4604  TIP3      H1            -10.3821266592      -23.9863466582       12.0428719928  SOLV      4593            0.0000000000
     13893      4604  TIP3      H2             -9.1997350902      -23.1599950478       11.5929432696  SOLV      4593            0.0000000000
     13894      4605  TIP3      OH2            -2.1735004944      -26.7171862567       17.3355581865  SOLV      4594            0.0000000000
     13895      4605  TIP3      H1             -2.2776184987      -26.7106255531       18.3145939748  SOLV      4594            0.0000000000
     13896      4605  TIP3      H2             -1.3996737960      -27.2865552200       17.2298335745  SOLV      4594            0.0000000000
     13897      4606  TIP3      OH2            -2.3577969770      -27.7330469688        6.1639124204  SOLV      4595            0.0000000000
     13898      4606  TIP3      H1             -1.8298220778      -28.0051693438        6.9513183895  SOLV      4595            0.0000000000
     13899      4606  TIP3      H2             -3.2388944794      -28.0443083450        6.4227131427  SOLV      4595            0.0000000000
     13900      4607  TIP3      OH2             0.3500936494      -21.4215205345       17.8121602846  SOLV      4596            0.0000000000
     13901      4607  TIP3      H1             -0.4611467538      -21.9660219765       17.7759422322  SOLV      4596            0.0000000000
     13902      4607  TIP3      H2              0.1706858370      -20.7710684659       17.0969796241  SOLV      4596            0.0000000000
     13903      4608  TIP3      OH2             0.9929653390      -23.0614626500        4.3389019994  SOLV      4597            0.0000000000
     13904      4608  TIP3      H1              1.2969422245      -22.3429723131        3.7618405742  SOLV      4597            0.0000000000
     13905      4608  TIP3      H2              0.2016921766      -22.6293287858        4.7236479625  SOLV      4597            0.0000000000
     13906      4609  TIP3      OH2            -8.8633030364      -34.7545556470       23.1087968656  SOLV      4598            0.0000000000
     13907      4609  TIP3      H1             -9.6297935371      -35.2979002418       22.8493724245  SOLV      4598            0.0000000000
     13908      4609  TIP3      H2             -8.3768717850      -35.3887370702       23.6574947833  SOLV      4598            0.0000000000
     13909      4610  TIP3      OH2            -0.7409110150      -28.4679634733        8.2659348076  SOLV      4599            0.0000000000
     13910      4610  TIP3      H1             -0.8631028124      -29.0926518098        9.0085460286  SOLV      4599            0.0000000000
     13911      4610  TIP3      H2              0.2337278230      -28.4988175934        8.1745306957  SOLV      4599            0.0000000000
     13912      4611  TIP3      OH2           -11.6193064281      -24.4511488723       19.3015741454  SOLV      4600            0.0000000000
     13913      4611  TIP3      H1            -11.0631412362      -25.1378045634       19.7063328315  SOLV      4600            0.0000000000
     13914      4611  TIP3      H2            -11.3878384056      -23.6774415669       19.8321656161  SOLV      4600            0.0000000000
     13915      4612  TIP3      OH2            -8.7550528466      -27.9717874441        6.1727668838  SOLV      4601            0.0000000000
     13916      4612  TIP3      H1             -8.6313539923      -28.9050404619        5.9163373242  SOLV      4601            0.0000000000
     13917      4612  TIP3      H2             -8.9617786306      -28.0624229778        7.1247778992  SOLV      4601            0.0000000000
     13918      4613  TIP3      OH2            -9.3153471599      -27.9154182241        8.8855093447  SOLV      4602            0.0000000000
     13919      4613  TIP3      H1             -8.5708087604      -28.2092510643        9.4292655577  SOLV      4602            0.0000000000
     13920      4613  TIP3      H2             -9.2652213376      -26.9379038466        8.9860070709  SOLV      4602            0.0000000000
     13921      4614  TIP3      OH2           -11.9758211548      -30.9982412160       10.9356888129  SOLV      4603            0.0000000000
     13922      4614  TIP3      H1            -12.6402677687      -30.5439575910       11.4967284789  SOLV      4603            0.0000000000
     13923      4614  TIP3      H2            -11.8440074605      -30.3193321877       10.2455341870  SOLV      4603            0.0000000000
     13924      4615  TIP3      OH2            -6.6034381360      -25.9599493070        8.3586534446  SOLV      4604            0.0000000000
     13925      4615  TIP3      H1             -7.4738104665      -25.7362768951        8.7433626296  SOLV      4604            0.0000000000
     13926      4615  TIP3      H2             -6.4713184142      -25.1949186021        7.7792299341  SOLV      4604            0.0000000000
     13927      4616  TIP3      OH2            -4.6341898960      -35.3902030597       12.3779200295  SOLV      4605            0.0000000000
     13928      4616  TIP3      H1             -4.0222549352      -34.6355415222       12.3094784175  SOLV      4605            0.0000000000
     13929      4616  TIP3      H2             -4.7353141990      -35.4588051378       13.3494922655  SOLV      4605            0.0000000000
     13930      4617  TIP3      OH2            -1.9126432644      -32.2041628840       20.5907719557  SOLV      4606            0.0000000000
     13931      4617  TIP3      H1             -1.7578123258      -31.5646074822       21.3126463207  SOLV      4606            0.0000000000
     13932      4617  TIP3      H2             -1.4838692674      -33.0042959611       20.9328838808  SOLV      4606            0.0000000000
     13933      4618  TIP3      OH2            -9.1285323232      -25.2007947495        9.0897184663  SOLV      4607            0.0000000000
     13934      4618  TIP3      H1             -9.4437129446      -24.4964198466        8.4813857054  SOLV      4607            0.0000000000
     13935      4618  TIP3      H2             -9.3033584490      -24.7872164859        9.9650612884  SOLV      4607            0.0000000000
     13936      4619  TIP3      OH2             4.2893161102      -32.7418322465       20.2291083813  SOLV      4608            0.0000000000
     13937      4619  TIP3      H1              3.3111939243      -32.7503615988       20.3795107686  SOLV      4608            0.0000000000
     13938      4619  TIP3      H2              4.3614374431      -33.5206394689       19.6546977052  SOLV      4608            0.0000000000
     13939      4620  TIP3      OH2             0.8324708276      -31.1579417164       14.2522106110  SOLV      4609            0.0000000000
     13940      4620  TIP3      H1              0.0429095326      -31.7258729657       14.3492995469  SOLV      4609            0.0000000000
     13941      4620  TIP3      H2              1.5176723638      -31.6715068367       14.7346635011  SOLV      4609            0.0000000000
     13942      4621  TIP3      OH2           -11.9768233609      -28.9695317492        8.9541947612  SOLV      4610            0.0000000000
     13943      4621  TIP3      H1            -11.2470184255      -28.3296713338        9.0601751677  SOLV      4610            0.0000000000
     13944      4621  TIP3      H2            -11.5580892737      -29.5637748834        8.2921963287  SOLV      4610            0.0000000000
     13945      4622  TIP3      OH2           -12.6067201596      -36.0695150008       10.3690037200  SOLV      4611            0.0000000000
     13946      4622  TIP3      H1            -12.5620829103      -35.0927167318       10.3331156524  SOLV      4611            0.0000000000
     13947      4622  TIP3      H2            -13.3167798901      -36.2474577167        9.7407772593  SOLV      4611            0.0000000000
     13948      4623  TIP3      OH2             0.5674989708      -21.5986160290       13.7435617488  SOLV      4612            0.0000000000
     13949      4623  TIP3      H1              0.1290103235      -21.1323710506       12.9951738794  SOLV      4612            0.0000000000
     13950      4623  TIP3      H2              1.5093673756      -21.4414757566       13.5140791000  SOLV      4612            0.0000000000
     13951      4624  TIP3      OH2           -13.3554896144      -26.7862935703       12.7846757074  SOLV      4613            0.0000000000
     13952      4624  TIP3      H1            -13.9518820014      -26.4800602317       13.4824798426  SOLV      4613            0.0000000000
     13953      4624  TIP3      H2            -13.7306011705      -26.3361171068       11.9891537814  SOLV      4613            0.0000000000
     13954      4625  TIP3      OH2           -11.6956808244      -21.2610220086       23.5522212531  SOLV      4614            0.0000000000
     13955      4625  TIP3      H1            -10.8325326096      -21.2463209337       24.0239232994  SOLV      4614            0.0000000000
     13956      4625  TIP3      H2            -11.8916876590      -22.2119955653       23.5517699035  SOLV      4614            0.0000000000
     13957      4626  TIP3      OH2            -6.9543632844      -21.7864626058       24.0477667345  SOLV      4615            0.0000000000
     13958      4626  TIP3      H1             -5.9948864700      -21.9035375958       24.0379550695  SOLV      4615            0.0000000000
     13959      4626  TIP3      H2             -7.2217802492      -22.3871468828       23.3222654830  SOLV      4615            0.0000000000
     13960      4627  TIP3      OH2            -7.1107547421      -25.9698126712        5.2523219365  SOLV      4616            0.0000000000
     13961      4627  TIP3      H1             -7.6694981867      -26.6853662147        5.6379194139  SOLV      4616            0.0000000000
     13962      4627  TIP3      H2             -6.3480257351      -26.4882522388        4.9413034777  SOLV      4616            0.0000000000
     13963      4628  TIP3      OH2            -0.5123081939      -22.6308033014       21.3324418830  SOLV      4617            0.0000000000
     13964      4628  TIP3      H1             -0.5893472526      -23.3136734993       22.0382478346  SOLV      4617            0.0000000000
     13965      4628  TIP3      H2              0.2378786518      -22.0924669538       21.6505665404  SOLV      4617            0.0000000000
     13966      4629  TIP3      OH2            -2.7567614138      -25.5725737215        4.4209865129  SOLV      4618            0.0000000000
     13967      4629  TIP3      H1             -2.3730345609      -26.2417145887        5.0226983918  SOLV      4618            0.0000000000
     13968      4629  TIP3      H2             -2.1828774678      -25.6334061343        3.6334806926  SOLV      4618            0.0000000000
     13969      4630  TIP3      OH2           -10.4306313906      -27.2985168862       25.5379828303  SOLV      4619            0.0000000000
     13970      4630  TIP3      H1            -10.3303926954      -28.2639034887       25.6127854052  SOLV      4619            0.0000000000
     13971      4630  TIP3      H2            -11.2989066375      -27.2299961561       25.0806107808  SOLV      4619            0.0000000000
     13972      4631  TIP3      OH2           -10.6272228867      -30.8255153291        7.5308090203  SOLV      4620            0.0000000000
     13973      4631  TIP3      H1            -10.0633525364      -31.1320745152        8.2642956264  SOLV      4620            0.0000000000
     13974      4631  TIP3      H2             -9.9565229611      -30.7566157812        6.8156948300  SOLV      4620            0.0000000000
     13975      4632  TIP3      OH2            -4.3635905361      -26.3840059643       23.3077545146  SOLV      4621            0.0000000000
     13976      4632  TIP3      H1             -4.7877080146      -26.1567449531       22.4523420158  SOLV      4621            0.0000000000
     13977      4632  TIP3      H2             -4.0828375798      -27.3128252786       23.1716819057  SOLV      4621            0.0000000000
     13978      4633  TIP3      OH2            -5.4432945233      -28.7503227151        5.6020036993  SOLV      4622            0.0000000000
     13979      4633  TIP3      H1             -5.4541353702      -28.6553075655        6.5763577851  SOLV      4622            0.0000000000
     13980      4633  TIP3      H2             -5.4333530596      -29.7302795257        5.5206726812  SOLV      4622            0.0000000000
     13981      4634  TIP3      OH2             0.5735422581      -26.2804983423       19.4074510355  SOLV      4623            0.0000000000
     13982      4634  TIP3      H1              1.3121733656      -25.8342922484       18.9527788071  SOLV      4623            0.0000000000
     13983      4634  TIP3      H2             -0.1498307952      -25.6451647200       19.2407136154  SOLV      4623            0.0000000000
     13984      4635  TIP3      OH2            -9.1677057393      -29.9511672704       25.4109821780  SOLV      4624            0.0000000000
     13985      4635  TIP3      H1             -8.3631941364      -30.2451341579       24.9646010747  SOLV      4624            0.0000000000
     13986      4635  TIP3      H2             -8.8112428996      -29.4518479627       26.1758866510  SOLV      4624            0.0000000000
     13987      4636  TIP3      OH2            -8.5950765055      -31.7172747373        9.6991723585  SOLV      4625            0.0000000000
     13988      4636  TIP3      H1             -8.8220440360      -32.1499479252       10.5372050115  SOLV      4625            0.0000000000
     13989      4636  TIP3      H2             -8.1909922495      -32.4563274734        9.1956718578  SOLV      4625            0.0000000000
     13990      4637  TIP3      OH2            -5.7829073615      -31.0142314462       22.0780793159  SOLV      4626            0.0000000000
     13991      4637  TIP3      H1             -6.6223076128      -30.5065485262       22.0308063942  SOLV      4626            0.0000000000
     13992      4637  TIP3      H2             -5.3214702514      -30.7148207931       21.2600057723  SOLV      4626            0.0000000000
     13993      4638  TIP3      OH2            -7.5524482530      -33.7397823096        8.1155401574  SOLV      4627            0.0000000000
     13994      4638  TIP3      H1             -7.7831581848      -33.6850131634        7.1655392385  SOLV      4627            0.0000000000
     13995      4638  TIP3      H2             -6.5737088415      -33.7652996285        8.0615520738  SOLV      4627            0.0000000000
     13996      4639  TIP3      OH2            -0.6595962127      -27.0346992220       23.3573909633  SOLV      4628            0.0000000000
     13997      4639  TIP3      H1              0.0022612400      -27.4591752473       22.7955175466  SOLV      4628            0.0000000000
     13998      4639  TIP3      H2             -0.8083523579      -27.7081354736       24.0423324940  SOLV      4628            0.0000000000
     13999      4640  TIP3      OH2             0.6557845819      -30.5191860226        4.7798337284  SOLV      4629            0.0000000000
     14000      4640  TIP3      H1              0.4359703307      -30.9235393211        3.9155803210  SOLV      4629            0.0000000000
     14001      4640  TIP3      H2              0.3141881025      -29.6090648445        4.6073424134  SOLV      4629            0.0000000000
     14002      4641  TIP3      OH2            -4.7151533910      -33.1362433852       23.3485013633  SOLV      4630            0.0000000000
     14003      4641  TIP3      H1             -4.8025629373      -33.9683459811       22.8622604612  SOLV      4630            0.0000000000
     14004      4641  TIP3      H2             -5.1426595078      -32.4888738889       22.7396882490  SOLV      4630            0.0000000000
     14005      4642  TIP3      OH2            -4.3431922525      -29.9785556840       20.0686598198  SOLV      4631            0.0000000000
     14006      4642  TIP3      H1             -3.5157630803      -29.8198504471       19.5978961753  SOLV      4631            0.0000000000
     14007      4642  TIP3      H2             -4.9546593762      -29.3569512425       19.6165621266  SOLV      4631            0.0000000000
     14008      4643  TIP3      OH2             1.3708534958      -30.2658559087       23.8130474786  SOLV      4632            0.0000000000
     14009      4643  TIP3      H1              1.7724070137      -31.0170936384       24.2980704949  SOLV      4632            0.0000000000
     14010      4643  TIP3      H2              2.1453375743      -29.8161605465       23.4512814977  SOLV      4632            0.0000000000
     14011      4644  TIP3      OH2             1.8733271229      -27.7637564697       21.2406008145  SOLV      4633            0.0000000000
     14012      4644  TIP3      H1              1.2749372914      -27.2196938888       20.6732309543  SOLV      4633            0.0000000000
     14013      4644  TIP3      H2              2.7379886952      -27.5174933969       20.8435116694  SOLV      4633            0.0000000000
     14014      4645  TIP3      OH2            -5.8573635079      -31.8886264962       25.6356616725  SOLV      4634            0.0000000000
     14015      4645  TIP3      H1             -6.6385439078      -32.4670689684       25.7262986621  SOLV      4634            0.0000000000
     14016      4645  TIP3      H2             -5.5358032510      -32.1441891270       24.7479219200  SOLV      4634            0.0000000000
     14017      4646  TIP3      OH2            -2.1189326800      -32.3911234465       23.9644328697  SOLV      4635            0.0000000000
     14018      4646  TIP3      H1             -1.9693669899      -32.9271478654       24.7654468746  SOLV      4635            0.0000000000
     14019      4646  TIP3      H2             -3.0530663387      -32.6253404154       23.7634627086  SOLV      4635            0.0000000000
     14020      4647  TIP3      OH2             0.3891989788      -33.2088630258       22.8601225938  SOLV      4636            0.0000000000
     14021      4647  TIP3      H1             -0.3938630743      -33.0772056680       23.4216534222  SOLV      4636            0.0000000000
     14022      4647  TIP3      H2              0.9577111722      -33.7677462590       23.4121262654  SOLV      4636            0.0000000000
     14023      4648  TIP3      OH2            -7.6081440852      -34.0241302643       26.1184535643  SOLV      4637            0.0000000000
     14024      4648  TIP3      H1             -7.5088701850      -34.8099506905       25.5471538634  SOLV      4637            0.0000000000
     14025      4648  TIP3      H2             -6.9238533253      -34.2081138680       26.7771083701  SOLV      4637            0.0000000000
     14026      4649  TIP3      OH2            -9.4340657167      -23.1630963993        7.2186341072  SOLV      4638            0.0000000000
     14027      4649  TIP3      H1             -8.4864436784      -23.2945056173        7.0207864199  SOLV      4638            0.0000000000
     14028      4649  TIP3      H2             -9.6943416693      -22.6265858281        6.4518118924  SOLV      4638            0.0000000000
     14029      4650  TIP3      OH2           -14.6806230015      -29.3320389820        9.2954287681  SOLV      4639            0.0000000000
     14030      4650  TIP3      H1            -13.7265998646      -29.1373061661        9.1626916442  SOLV      4639            0.0000000000
     14031      4650  TIP3      H2            -14.7495165714      -30.2295393499        8.9056092616  SOLV      4639            0.0000000000
     14032      4651  TIP3      OH2           -15.4804378228      -23.2366065383       13.4868297376  SOLV      4640            0.0000000000
     14033      4651  TIP3      H1            -16.1521078748      -23.8361471440       13.0935854250  SOLV      4640            0.0000000000
     14034      4651  TIP3      H2            -15.0549630199      -23.8409394301       14.1317870667  SOLV      4640            0.0000000000
     14035      4652  TIP3      OH2           -14.1636451091      -24.7988713410       15.3556274047  SOLV      4641            0.0000000000
     14036      4652  TIP3      H1            -14.3135033769      -25.4716181128       16.0416031666  SOLV      4641            0.0000000000
     14037      4652  TIP3      H2            -13.6348488104      -24.1552302838       15.8623834421  SOLV      4641            0.0000000000
     14038      4653  TIP3      OH2             3.1660793606      -20.8253366516       13.3848924109  SOLV      4642            0.0000000000
     14039      4653  TIP3      H1              3.3615768076      -20.5045784021       14.2856110139  SOLV      4642            0.0000000000
     14040      4653  TIP3      H2              3.7120464862      -20.2452419313       12.8356246829  SOLV      4642            0.0000000000
     14041      4654  TIP3      OH2             3.3952789089      -20.5539775260       16.1746194309  SOLV      4643            0.0000000000
     14042      4654  TIP3      H1              2.9181595894      -21.4115878861       16.1372907252  SOLV      4643            0.0000000000
     14043      4654  TIP3      H2              4.0903483782      -20.7864636702       16.8097193899  SOLV      4643            0.0000000000
     14044      4655  TIP3      OH2             3.8791918811      -23.7786312461       21.9410736515  SOLV      4644            0.0000000000
     14045      4655  TIP3      H1              3.1471631883      -23.6601379959       22.5812614838  SOLV      4644            0.0000000000
     14046      4655  TIP3      H2              4.2920585118      -22.8902224646       21.9566749561  SOLV      4644            0.0000000000
     14047      4656  TIP3      OH2             2.0450591393      -28.6610634451        8.0832703676  SOLV      4645            0.0000000000
     14048      4656  TIP3      H1              2.6797158379      -27.9829572109        7.7774576977  SOLV      4645            0.0000000000
     14049      4656  TIP3      H2              2.5006578403      -29.0071096934        8.8821133804  SOLV      4645            0.0000000000
     14050      4657  TIP3      OH2             3.3149564539      -29.9717891507       10.1512474989  SOLV      4646            0.0000000000
     14051      4657  TIP3      H1              2.6270320168      -30.3789368759       10.7244683050  SOLV      4646            0.0000000000
     14052      4657  TIP3      H2              3.9337696913      -29.5835329055       10.8013544093  SOLV      4646            0.0000000000
     14053      4658  TIP3      OH2             3.9215460769      -25.9890401965       14.4862365395  SOLV      4647            0.0000000000
     14054      4658  TIP3      H1              4.3719334335      -26.6929124709       13.9829106022  SOLV      4647            0.0000000000
     14055      4658  TIP3      H2              3.8339097631      -25.2797982942       13.8191108700  SOLV      4647            0.0000000000
     14056      4659  TIP3      OH2             2.1273045992      -23.0195919974       16.3984729026  SOLV      4648            0.0000000000
     14057      4659  TIP3      H1              1.4071420520      -22.5905746107       16.9033724745  SOLV      4648            0.0000000000
     14058      4659  TIP3      H2              1.6304406768      -23.4611622727       15.6747633718  SOLV      4648            0.0000000000
     14059      4660  TIP3      OH2             2.6423727535      -30.8991797246        6.5884507350  SOLV      4649            0.0000000000
     14060      4660  TIP3      H1              1.9461651320      -30.8330115379        5.8944507568  SOLV      4649            0.0000000000
     14061      4660  TIP3      H2              2.3733531958      -30.1406227341        7.1501449069  SOLV      4649            0.0000000000
     14062      4661  TIP3      OH2             1.3849721847      -34.3060936023        6.1004256790  SOLV      4650            0.0000000000
     14063      4661  TIP3      H1              1.0805016678      -33.5766608823        5.5467483890  SOLV      4650            0.0000000000
     14064      4661  TIP3      H2              0.8600470873      -35.0315345933        5.7354525492  SOLV      4650            0.0000000000
     14065      4662  TIP3      OH2             1.4258455486      -31.3690924434       11.5789471783  SOLV      4651            0.0000000000
     14066      4662  TIP3      H1              1.3705088884      -32.3353565100       11.4876379065  SOLV      4651            0.0000000000
     14067      4662  TIP3      H2              1.2474371351      -31.2454243006       12.5391131795  SOLV      4651            0.0000000000
     14068      4663  TIP3      OH2           -12.3417612946      -30.6541211105       19.0803760836  SOLV      4652            0.0000000000
     14069      4663  TIP3      H1            -12.3632251646      -31.0037938444       18.1633801404  SOLV      4652            0.0000000000
     14070      4663  TIP3      H2            -11.3683844784      -30.6322106795       19.2396983355  SOLV      4652            0.0000000000
     14071      4664  TIP3      OH2             4.3219877438      -27.1052627976       20.1623380574  SOLV      4653            0.0000000000
     14072      4664  TIP3      H1              4.9962531965      -27.7856032889       19.9544392680  SOLV      4653            0.0000000000
     14073      4664  TIP3      H2              4.4974675357      -26.4203423031       19.4964511776  SOLV      4653            0.0000000000
     14074      4665  TIP3      OH2             6.1639590565      -29.1129301259       20.1363092652  SOLV      4654            0.0000000000
     14075      4665  TIP3      H1              5.4730390708      -29.5963076754       20.6405262505  SOLV      4654            0.0000000000
     14076      4665  TIP3      H2              6.9571444225      -29.2730182529       20.6653361664  SOLV      4654            0.0000000000
     14077      4666  TIP3      OH2             1.4310826089      -34.2133549507       10.4557911532  SOLV      4655            0.0000000000
     14078      4666  TIP3      H1              1.7079808781      -35.1341936153       10.5741564129  SOLV      4655            0.0000000000
     14079      4666  TIP3      H2              2.0353242121      -33.9072233551        9.7546214259  SOLV      4655            0.0000000000
     14080      4667  TIP3      OH2             3.0143081885      -32.3354423435       15.4752765049  SOLV      4656            0.0000000000
     14081      4667  TIP3      H1              3.8370654045      -32.0182350294       15.0494272771  SOLV      4656            0.0000000000
     14082      4667  TIP3      H2              3.0982881785      -31.9334517805       16.3624875249  SOLV      4656            0.0000000000
     14083      4668  TIP3      OH2             3.7343892269      -30.9939564169       17.7618861794  SOLV      4657            0.0000000000
     14084      4668  TIP3      H1              2.9646373737      -30.7227428345       18.2986276429  SOLV      4657            0.0000000000
     14085      4668  TIP3      H2              4.0059018899      -30.1513213558       17.3480649772  SOLV      4657            0.0000000000
     14086      4669  TIP3      OH2           -10.3267594778      -33.7821418500       25.7403089458  SOLV      4658            0.0000000000
     14087      4669  TIP3      H1             -9.3470189805      -33.7869248743       25.7364954065  SOLV      4658            0.0000000000
     14088      4669  TIP3      H2            -10.5353618023      -34.6882124630       25.9922334882  SOLV      4658            0.0000000000
     14089      4670  TIP3      OH2           -12.5224821197      -34.2040982430       19.7855363414  SOLV      4659            0.0000000000
     14090      4670  TIP3      H1            -11.9891032444      -34.1319948626       18.9640316485  SOLV      4659            0.0000000000
     14091      4670  TIP3      H2            -12.2114208647      -33.4377799406       20.2837616452  SOLV      4659            0.0000000000
     14092      4671  TIP3      OH2            -1.0430858493      -22.0537156823        9.9150561954  SOLV      4660            0.0000000000
     14093      4671  TIP3      H1             -0.5250820387      -22.1259340208        9.0866041421  SOLV      4660            0.0000000000
     14094      4671  TIP3      H2             -0.5614320886      -21.3602725484       10.3937005253  SOLV      4660            0.0000000000
     14095      4672  TIP3      OH2           -10.0552955132      -24.0222357500       23.7493345878  SOLV      4661            0.0000000000
     14096      4672  TIP3      H1            -10.9956318362      -24.2291710667       23.5885174410  SOLV      4661            0.0000000000
     14097      4672  TIP3      H2             -9.9865518756      -24.1507933560       24.7032034714  SOLV      4661            0.0000000000
     14098      4673  TIP3      OH2            -8.2432063183      -23.6412186807       19.2365676153  SOLV      4662            0.0000000000
     14099      4673  TIP3      H1             -8.7354482755      -22.8879451079       18.8469029004  SOLV      4662            0.0000000000
     14100      4673  TIP3      H2             -7.3908672803      -23.4972734116       18.7763666692  SOLV      4662            0.0000000000
     14101      4674  TIP3      OH2            -3.8760533803      -21.2686247893       20.5906047366  SOLV      4663            0.0000000000
     14102      4674  TIP3      H1             -3.4608680797      -21.2589172275       21.4800612322  SOLV      4663            0.0000000000
     14103      4674  TIP3      H2             -3.2312600350      -20.7266104312       20.0863945878  SOLV      4663            0.0000000000
     14104      4675  TIP3      OH2            -2.0775728796      -19.6973795406       19.2496920579  SOLV      4664            0.0000000000
     14105      4675  TIP3      H1             -1.3724794547      -20.1940625153       18.8132579708  SOLV      4664            0.0000000000
     14106      4675  TIP3      H2             -1.5522944486      -19.1265512803       19.8538806497  SOLV      4664            0.0000000000
     14107      4676  TIP3      OH2           -11.5230434746      -21.1286584793       19.5152927872  SOLV      4665            0.0000000000
     14108      4676  TIP3      H1            -12.4322937821      -20.8357595745       19.2782412342  SOLV      4665            0.0000000000
     14109      4676  TIP3      H2            -11.3707170031      -20.5834352951       20.3006442844  SOLV      4665            0.0000000000
     14110      4677  TIP3      OH2            -9.1618360987      -21.3240621848       18.0789052251  SOLV      4666            0.0000000000
     14111      4677  TIP3      H1            -10.0391448081      -21.2049955558       18.5066170016  SOLV      4666            0.0000000000
     14112      4677  TIP3      H2             -9.3428131560      -20.9992791628       17.1740947865  SOLV      4666            0.0000000000
     14113      4678  TIP3      OH2            -4.9028765190      -21.0770867396       16.0479903405  SOLV      4667            0.0000000000
     14114      4678  TIP3      H1             -5.6135018264      -20.9067178697       15.4009542132  SOLV      4667            0.0000000000
     14115      4678  TIP3      H2             -4.7985863708      -20.1921253727       16.4576366875  SOLV      4667            0.0000000000
     14116      4679  TIP3      OH2            -2.2114311338      -21.6816364194       16.5758906708  SOLV      4668            0.0000000000
     14117      4679  TIP3      H1             -3.1539513156      -21.5016361357       16.3843376117  SOLV      4668            0.0000000000
     14118      4679  TIP3      H2             -1.7797346719      -20.9349232943       16.1317900621  SOLV      4668            0.0000000000
     14119      4680  TIP3      OH2            -0.1294510446      -19.7624738287       15.6892643073  SOLV      4669            0.0000000000
     14120      4680  TIP3      H1             -0.2835349990      -18.9198769463       15.2114189359  SOLV      4669            0.0000000000
     14121      4680  TIP3      H2              0.1163647120      -20.3663071897       14.9540947317  SOLV      4669            0.0000000000
     14122      4681  TIP3      OH2           -12.4035742882      -23.1941507917       16.8973759306  SOLV      4670            0.0000000000
     14123      4681  TIP3      H1            -12.1546596491      -23.4777716514       17.8022889456  SOLV      4670            0.0000000000
     14124      4681  TIP3      H2            -11.6759941201      -23.6254896657       16.3945874676  SOLV      4670            0.0000000000
     14125      4682  TIP3      OH2           -10.4383441998      -24.4578685516       15.5184094251  SOLV      4671            0.0000000000
     14126      4682  TIP3      H1            -10.2947538071      -25.2932105110       16.0248809680  SOLV      4671            0.0000000000
     14127      4682  TIP3      H2             -9.5235553881      -24.1077509916       15.4765159764  SOLV      4671            0.0000000000
     14128      4683  TIP3      OH2            -7.7652864774      -23.5583045585       15.5725857207  SOLV      4672            0.0000000000
     14129      4683  TIP3      H1             -7.4746661101      -24.4869613692       15.4857025195  SOLV      4672            0.0000000000
     14130      4683  TIP3      H2             -7.2840001798      -23.3147627574       16.3861197414  SOLV      4672            0.0000000000
     14131      4684  TIP3      OH2           -14.5252930929      -25.4128128991       10.7688610734  SOLV      4673            0.0000000000
     14132      4684  TIP3      H1            -15.3962083535      -25.7332001785       10.4677574939  SOLV      4673            0.0000000000
     14133      4684  TIP3      H2            -14.6098695206      -24.4715038136       10.5309813745  SOLV      4673            0.0000000000
     14134      4685  TIP3      OH2            -6.8047924376      -23.6261236240        6.6242008410  SOLV      4674            0.0000000000
     14135      4685  TIP3      H1             -5.9176152281      -23.3931595907        6.2778237255  SOLV      4674            0.0000000000
     14136      4685  TIP3      H2             -7.0064460477      -24.3834738295        6.0275046098  SOLV      4674            0.0000000000
     14137      4686  TIP3      OH2             0.4376265727      -22.3657503875        7.5977292949  SOLV      4675            0.0000000000
     14138      4686  TIP3      H1              0.3662967449      -23.3465143616        7.5081291604  SOLV      4675            0.0000000000
     14139      4686  TIP3      H2             -0.0604484146      -22.0771033459        6.8053712364  SOLV      4675            0.0000000000
     14140      4687  TIP3      OH2           -13.7206934207      -25.0626260340        7.1342514736  SOLV      4676            0.0000000000
     14141      4687  TIP3      H1            -13.7743722705      -25.0310806824        8.1004755340  SOLV      4676            0.0000000000
     14142      4687  TIP3      H2            -12.8733000609      -25.5457245021        6.9901080532  SOLV      4676            0.0000000000
     14143      4688  TIP3      OH2             2.6366878596      -20.9669863064       19.4214664717  SOLV      4677            0.0000000000
     14144      4688  TIP3      H1              1.8433280312      -21.2632571336       18.9286490743  SOLV      4677            0.0000000000
     14145      4688  TIP3      H2              2.4350477835      -20.0127091291       19.5158911084  SOLV      4677            0.0000000000
     14146      4689  TIP3      OH2            15.3286800098      -27.1821057333        7.0782351619  SOLV      4678            0.0000000000
     14147      4689  TIP3      H1             14.9837877490      -26.2978820794        6.8361286970  SOLV      4678            0.0000000000
     14148      4689  TIP3      H2             14.6056654855      -27.7427210574        6.7434193356  SOLV      4678            0.0000000000
     14149      4690  TIP3      OH2            15.2736515446      -27.1800894662       11.0024574950  SOLV      4679            0.0000000000
     14150      4690  TIP3      H1             15.6498645392      -27.4854258544       11.8492132843  SOLV      4679            0.0000000000
     14151      4690  TIP3      H2             14.9554870340      -28.0120918152       10.6176397433  SOLV      4679            0.0000000000
     14152      4691  TIP3      OH2             8.2974415150      -28.1801610074       14.5300401649  SOLV      4680            0.0000000000
     14153      4691  TIP3      H1              8.6864165700      -28.9111314121       15.0435818465  SOLV      4680            0.0000000000
     14154      4691  TIP3      H2              9.1023353730      -27.7017108178       14.2848866278  SOLV      4680            0.0000000000
     14155      4692  TIP3      OH2            17.7461468630      -24.1037765057        7.7478138819  SOLV      4681            0.0000000000
     14156      4692  TIP3      H1             17.6005469497      -24.8647850151        8.3248881580  SOLV      4681            0.0000000000
     14157      4692  TIP3      H2             18.1180228913      -23.4443142167        8.3595087910  SOLV      4681            0.0000000000
     14158      4693  TIP3      OH2             8.0537032522      -24.1614432564       11.7910057251  SOLV      4682            0.0000000000
     14159      4693  TIP3      H1              7.9589571289      -25.1395092533       11.7861646102  SOLV      4682            0.0000000000
     14160      4693  TIP3      H2              9.0211244129      -24.0803729416       11.7329021164  SOLV      4682            0.0000000000
     14161      4694  TIP3      OH2             4.9926281685      -32.2259726073        9.7004089763  SOLV      4683            0.0000000000
     14162      4694  TIP3      H1              4.5298122350      -31.3897077514        9.8908067887  SOLV      4683            0.0000000000
     14163      4694  TIP3      H2              4.3207263874      -32.6719991986        9.1524851457  SOLV      4683            0.0000000000
     14164      4695  TIP3      OH2             5.6682109437      -29.2643203654       11.4449865531  SOLV      4684            0.0000000000
     14165      4695  TIP3      H1              6.1328611638      -30.0834097800       11.7342613296  SOLV      4684            0.0000000000
     14166      4695  TIP3      H2              6.2440741464      -28.9502627381       10.7359452456  SOLV      4684            0.0000000000
     14167      4696  TIP3      OH2            14.2347678077      -19.5836743654        7.9612876970  SOLV      4685            0.0000000000
     14168      4696  TIP3      H1             14.7458019024      -20.2478531607        7.4535459174  SOLV      4685            0.0000000000
     14169      4696  TIP3      H2             14.1694266788      -20.0044758665        8.8283636535  SOLV      4685            0.0000000000
     14170      4697  TIP3      OH2            13.2884256662      -24.9461160161       11.4147751494  SOLV      4686            0.0000000000
     14171      4697  TIP3      H1             13.6871631925      -25.7478725954       11.0303450012  SOLV      4686            0.0000000000
     14172      4697  TIP3      H2             14.1167679001      -24.4697881418       11.6359477292  SOLV      4686            0.0000000000
     14173      4698  TIP3      OH2            23.2683819066      -31.4926177240       11.2163505904  SOLV      4687            0.0000000000
     14174      4698  TIP3      H1             23.4284089820      -30.7128339793       11.7829429847  SOLV      4687            0.0000000000
     14175      4698  TIP3      H2             23.1233059978      -31.0752858261       10.3553762285  SOLV      4687            0.0000000000
     14176      4699  TIP3      OH2            17.3061667498      -29.9727887927       11.7561575775  SOLV      4688            0.0000000000
     14177      4699  TIP3      H1             17.7016350969      -30.8143952397       12.0082197500  SOLV      4688            0.0000000000
     14178      4699  TIP3      H2             17.0170220488      -30.1480190845       10.8367360367  SOLV      4688            0.0000000000
     14179      4700  TIP3      OH2            10.6693739495      -33.3366419449       11.4303097043  SOLV      4689            0.0000000000
     14180      4700  TIP3      H1             10.4432328679      -32.6884351350       10.7286046804  SOLV      4689            0.0000000000
     14181      4700  TIP3      H2             10.2088047093      -34.1303071861       11.1197004912  SOLV      4689            0.0000000000
     14182      4701  TIP3      OH2            17.8459173490      -32.1341074765        7.7233477035  SOLV      4690            0.0000000000
     14183      4701  TIP3      H1             18.3381993378      -32.8113047011        8.2107725232  SOLV      4690            0.0000000000
     14184      4701  TIP3      H2             18.1558870436      -32.2526907813        6.8121078633  SOLV      4690            0.0000000000
     14185      4702  TIP3      OH2             7.0206326818      -31.4119810887       12.4010046517  SOLV      4691            0.0000000000
     14186      4702  TIP3      H1              7.8579868502      -31.5392867931       12.9083725569  SOLV      4691            0.0000000000
     14187      4702  TIP3      H2              7.2389423724      -31.9524170005       11.6129334334  SOLV      4691            0.0000000000
     14188      4703  TIP3      OH2            11.5402496746      -29.3635570993       10.4755654858  SOLV      4692            0.0000000000
     14189      4703  TIP3      H1             12.4840894248      -29.6246463015       10.5460225722  SOLV      4692            0.0000000000
     14190      4703  TIP3      H2             11.1337910977      -30.1942758660       10.1444465559  SOLV      4692            0.0000000000
     14191      4704  TIP3      OH2            23.9269043525      -29.5503699588       13.1121150027  SOLV      4693            0.0000000000
     14192      4704  TIP3      H1             23.0952415856      -29.0338289756       13.0645792116  SOLV      4693            0.0000000000
     14193      4704  TIP3      H2             24.4381024948      -29.0714183889       13.7879202254  SOLV      4693            0.0000000000
     14194      4705  TIP3      OH2            14.1767503922      -25.0264523963        5.7695153165  SOLV      4694            0.0000000000
     14195      4705  TIP3      H1             13.7849063560      -25.2109427071        4.9033741232  SOLV      4694            0.0000000000
     14196      4705  TIP3      H2             13.7326275812      -24.1847304020        6.0026981313  SOLV      4694            0.0000000000
     14197      4706  TIP3      OH2            11.8644863116      -25.7650133383       13.6190303364  SOLV      4695            0.0000000000
     14198      4706  TIP3      H1             11.2650035748      -25.0759604184       13.9797695194  SOLV      4695            0.0000000000
     14199      4706  TIP3      H2             12.2717942159      -25.3016430563       12.8562438421  SOLV      4695            0.0000000000
     14200      4707  TIP3      OH2             9.3742013931      -32.0031801163       13.5041159500  SOLV      4696            0.0000000000
     14201      4707  TIP3      H1             10.1664020836      -31.4956566560       13.7573295457  SOLV      4696            0.0000000000
     14202      4707  TIP3      H2              9.7429601333      -32.6591096304       12.8819833787  SOLV      4696            0.0000000000
     14203      4708  TIP3      OH2            10.1447881729      -23.7972335779       14.6359157918  SOLV      4697            0.0000000000
     14204      4708  TIP3      H1              9.8790742830      -22.9217263084       14.2878528459  SOLV      4697            0.0000000000
     14205      4708  TIP3      H2              9.3499457202      -23.9979598139       15.1767857772  SOLV      4697            0.0000000000
     14206      4709  TIP3      OH2             4.0156055652      -26.9036320286        6.9840024334  SOLV      4698            0.0000000000
     14207      4709  TIP3      H1              3.6078650882      -26.6315875974        6.1406839091  SOLV      4698            0.0000000000
     14208      4709  TIP3      H2              4.3396744263      -26.0470511037        7.3308052148  SOLV      4698            0.0000000000
     14209      4710  TIP3      OH2            18.4013733564      -21.7192512579        9.3950828051  SOLV      4699            0.0000000000
     14210      4710  TIP3      H1             17.4981133257      -21.8145071170        9.7713319740  SOLV      4699            0.0000000000
     14211      4710  TIP3      H2             18.3356895961      -20.8441060024        8.9630419791  SOLV      4699            0.0000000000
     14212      4711  TIP3      OH2            15.5249857247      -21.1597270451        6.1083656725  SOLV      4700            0.0000000000
     14213      4711  TIP3      H1             15.8723214349      -22.0759831652        5.9933143739  SOLV      4700            0.0000000000
     14214      4711  TIP3      H2             16.2860093072      -20.6701830342        5.7606606457  SOLV      4700            0.0000000000
     14215      4712  TIP3      OH2            16.8534814268      -23.3624250822        5.2630926796  SOLV      4701            0.0000000000
     14216      4712  TIP3      H1             16.6013988365      -24.1805164092        4.8121005549  SOLV      4701            0.0000000000
     14217      4712  TIP3      H2             17.2314453579      -23.7187434385        6.1019876984  SOLV      4701            0.0000000000
     14218      4713  TIP3      OH2            20.6569465512      -22.6558667747       12.8398486652  SOLV      4702            0.0000000000
     14219      4713  TIP3      H1             20.5755003543      -23.4300922831       12.2393892328  SOLV      4702            0.0000000000
     14220      4713  TIP3      H2             20.5409312878      -21.9088098791       12.2157607768  SOLV      4702            0.0000000000
     14221      4714  TIP3      OH2            13.6418774877      -28.6643641076        5.4370903104  SOLV      4703            0.0000000000
     14222      4714  TIP3      H1             12.8349552338      -28.1568230669        5.2200201710  SOLV      4703            0.0000000000
     14223      4714  TIP3      H2             14.0769927314      -28.7408293240        4.5690569386  SOLV      4703            0.0000000000
     14224      4715  TIP3      OH2            13.1819005831      -30.8230700448        2.5424776891  SOLV      4704            0.0000000000
     14225      4715  TIP3      H1             13.8532725942      -30.3181199041        3.0350824965  SOLV      4704            0.0000000000
     14226      4715  TIP3      H2             13.7668922479      -31.4084549049        2.0155730275  SOLV      4704            0.0000000000
     14227      4716  TIP3      OH2            22.6255836991      -26.2469765947       11.2814974204  SOLV      4705            0.0000000000
     14228      4716  TIP3      H1             21.7989798193      -25.7203314213       11.2953921199  SOLV      4705            0.0000000000
     14229      4716  TIP3      H2             22.9633087807      -26.0237025642       10.3875103730  SOLV      4705            0.0000000000
     14230      4717  TIP3      OH2            17.1113445097      -27.8455786340        5.0976245117  SOLV      4706            0.0000000000
     14231      4717  TIP3      H1             16.5708558576      -27.6349831361        5.8940315103  SOLV      4706            0.0000000000
     14232      4717  TIP3      H2             17.9571354248      -28.1036829664        5.5224989876  SOLV      4706            0.0000000000
     14233      4718  TIP3      OH2            19.3538779992      -27.4138714791       14.3367100015  SOLV      4707            0.0000000000
     14234      4718  TIP3      H1             19.3006879562      -26.5972080927       14.8629010519  SOLV      4707            0.0000000000
     14235      4718  TIP3      H2             18.4950649128      -27.3994817378       13.8725767975  SOLV      4707            0.0000000000
     14236      4719  TIP3      OH2             9.4418872790      -27.8978822176        9.3206420562  SOLV      4708            0.0000000000
     14237      4719  TIP3      H1              8.9877162764      -28.4830402865        8.6738501146  SOLV      4708            0.0000000000
     14238      4719  TIP3      H2             10.1806745848      -28.4650402504        9.6254693553  SOLV      4708            0.0000000000
     14239      4720  TIP3      OH2            10.7425203115      -23.7504967701       10.7519983476  SOLV      4709            0.0000000000
     14240      4720  TIP3      H1             10.5061923287      -24.1069238881        9.8807651032  SOLV      4709            0.0000000000
     14241      4720  TIP3      H2             11.6154588562      -24.1647319474       10.9156200336  SOLV      4709            0.0000000000
     14242      4721  TIP3      OH2            10.7319627858      -28.1883708567       12.8731315776  SOLV      4710            0.0000000000
     14243      4721  TIP3      H1             11.0584013634      -28.4973019173       11.9982768833  SOLV      4710            0.0000000000
     14244      4721  TIP3      H2             11.2157880510      -27.3454189209       12.9955714917  SOLV      4710            0.0000000000
     14245      4722  TIP3      OH2            15.9777397262      -21.7888730026       10.6051115050  SOLV      4711            0.0000000000
     14246      4722  TIP3      H1             15.9213053618      -21.0164559242       11.1958182619  SOLV      4711            0.0000000000
     14247      4722  TIP3      H2             15.8613458902      -22.5428601159       11.2180677583  SOLV      4711            0.0000000000
     14248      4723  TIP3      OH2            12.1665927730      -22.6594859500       16.1003603957  SOLV      4712            0.0000000000
     14249      4723  TIP3      H1             11.5562358610      -22.0415664841       16.5593899316  SOLV      4712            0.0000000000
     14250      4723  TIP3      H2             11.5191977367      -23.1739214866       15.5721109960  SOLV      4712            0.0000000000
     14251      4724  TIP3      OH2            15.4740591274      -29.3045322034        3.4054854916  SOLV      4713            0.0000000000
     14252      4724  TIP3      H1             16.0724629359      -28.6961082255        3.8933910315  SOLV      4713            0.0000000000
     14253      4724  TIP3      H2             15.7471899843      -29.1168355821        2.4727421634  SOLV      4713            0.0000000000
     14254      4725  TIP3      OH2             9.7625385843      -27.1425589623       17.2216026775  SOLV      4714            0.0000000000
     14255      4725  TIP3      H1              9.8142798769      -26.2359349602       17.5868866134  SOLV      4714            0.0000000000
     14256      4725  TIP3      H2              8.7985511549      -27.2988005289       17.2915670534  SOLV      4714            0.0000000000
     14257      4726  TIP3      OH2            13.0179872447      -22.5374511793        6.0264993046  SOLV      4715            0.0000000000
     14258      4726  TIP3      H1             13.6690719734      -21.8935974444        6.3437461451  SOLV      4715            0.0000000000
     14259      4726  TIP3      H2             12.2978841625      -21.9901405623        5.6928876523  SOLV      4715            0.0000000000
     14260      4727  TIP3      OH2            10.1000362012      -21.0017119379       16.9846348539  SOLV      4716            0.0000000000
     14261      4727  TIP3      H1              9.7324382069      -20.9668647122       16.0815231422  SOLV      4716            0.0000000000
     14262      4727  TIP3      H2              9.3044089030      -21.2205882770       17.5219655128  SOLV      4716            0.0000000000
     14263      4728  TIP3      OH2             8.0436498560      -29.4363365849        7.4304005070  SOLV      4717            0.0000000000
     14264      4728  TIP3      H1              7.3467394319      -29.0492452228        6.8600125723  SOLV      4717            0.0000000000
     14265      4728  TIP3      H2              7.8519155402      -30.3794798803        7.3733548576  SOLV      4717            0.0000000000
     14266      4729  TIP3      OH2            18.7091651238      -23.1998332924       -0.4594292434  SOLV      4718            0.0000000000
     14267      4729  TIP3      H1             18.8321825877      -22.2680170861       -0.7326677361  SOLV      4718            0.0000000000
     14268      4729  TIP3      H2             19.6036075416      -23.5642231128       -0.6398050500  SOLV      4718            0.0000000000
     14269      4730  TIP3      OH2             5.8936474842      -25.6360041563       16.4332939158  SOLV      4719            0.0000000000
     14270      4730  TIP3      H1              5.1898216552      -25.7852410617       15.7634583693  SOLV      4719            0.0000000000
     14271      4730  TIP3      H2              6.2742218075      -26.5270707536       16.5436491239  SOLV      4719            0.0000000000
     14272      4731  TIP3      OH2             4.4144643019      -23.6960819785       12.7350059626  SOLV      4720            0.0000000000
     14273      4731  TIP3      H1              5.3803833712      -23.6873509776       12.6971484112  SOLV      4720            0.0000000000
     14274      4731  TIP3      H2              4.2283366178      -22.8947528867       13.2493101924  SOLV      4720            0.0000000000
     14275      4732  TIP3      OH2            23.0990147241      -19.1948038193       13.3429671402  SOLV      4721            0.0000000000
     14276      4732  TIP3      H1             23.0782033272      -20.1548872257       13.5107030851  SOLV      4721            0.0000000000
     14277      4732  TIP3      H2             22.2413131116      -18.9258361829       13.7459440883  SOLV      4721            0.0000000000
     14278      4733  TIP3      OH2            14.0952709261      -21.3909674516       14.6787736338  SOLV      4722            0.0000000000
     14279      4733  TIP3      H1             14.0192240430      -20.4589548508       14.9728366543  SOLV      4722            0.0000000000
     14280      4733  TIP3      H2             13.3778919274      -21.8058839729       15.2098540895  SOLV      4722            0.0000000000
     14281      4734  TIP3      OH2            11.8722039611      -19.9561316771        4.1009103652  SOLV      4723            0.0000000000
     14282      4734  TIP3      H1             11.3060780443      -20.2240745426        3.3509533121  SOLV      4723            0.0000000000
     14283      4734  TIP3      H2             11.4190053170      -19.1483494533        4.4251627961  SOLV      4723            0.0000000000
     14284      4735  TIP3      OH2             6.1494757283      -21.5843646479        8.0435980300  SOLV      4724            0.0000000000
     14285      4735  TIP3      H1              6.5819721770      -21.6845468515        8.9199562451  SOLV      4724            0.0000000000
     14286      4735  TIP3      H2              5.6405594599      -22.4132869170        7.9908626383  SOLV      4724            0.0000000000
     14287      4736  TIP3      OH2            13.9203954587      -20.9500981525        0.5824181504  SOLV      4725            0.0000000000
     14288      4736  TIP3      H1             14.4137543042      -21.6768359570        0.1279258467  SOLV      4725            0.0000000000
     14289      4736  TIP3      H2             14.0692577606      -21.1809974816        1.5099858464  SOLV      4725            0.0000000000
     14290      4737  TIP3      OH2            14.3097515789      -20.6394401108        3.4429021069  SOLV      4726            0.0000000000
     14291      4737  TIP3      H1             13.4122001604      -20.3532765810        3.6386417588  SOLV      4726            0.0000000000
     14292      4737  TIP3      H2             14.3860712580      -21.4021467071        4.0076228564  SOLV      4726            0.0000000000
     14293      4738  TIP3      OH2            21.8744665590      -27.6739649204       16.3823925299  SOLV      4727            0.0000000000
     14294      4738  TIP3      H1             21.0903530171      -27.4823516467       15.8471947256  SOLV      4727            0.0000000000
     14295      4738  TIP3      H2             22.0362246269      -28.6130011593       16.1192627613  SOLV      4727            0.0000000000
     14296      4739  TIP3      OH2             7.9381242371      -23.8151473449       16.2591574699  SOLV      4728            0.0000000000
     14297      4739  TIP3      H1              8.4110198794      -23.9667591430       17.1003561191  SOLV      4728            0.0000000000
     14298      4739  TIP3      H2              7.1856879218      -24.4389697244       16.3380238395  SOLV      4728            0.0000000000
     14299      4740  TIP3      OH2            19.4239749519      -30.1485160638       15.1499943950  SOLV      4729            0.0000000000
     14300      4740  TIP3      H1             18.9842861676      -30.3060324503       16.0110725712  SOLV      4729            0.0000000000
     14301      4740  TIP3      H2             19.2357824968      -29.2125568662       14.9679668506  SOLV      4729            0.0000000000
     14302      4741  TIP3      OH2            16.2875800703      -28.8609792971        0.8758640799  SOLV      4730            0.0000000000
     14303      4741  TIP3      H1             15.8835507815      -29.0967170131        0.0188010988  SOLV      4730            0.0000000000
     14304      4741  TIP3      H2             17.1307311488      -28.4656585248        0.5795205804  SOLV      4730            0.0000000000
     14305      4742  TIP3      OH2            11.4333548606      -30.3817766958       14.3563200234  SOLV      4731            0.0000000000
     14306      4742  TIP3      H1             10.8743638268      -30.2114863732       15.1428765615  SOLV      4731            0.0000000000
     14307      4742  TIP3      H2             11.2335728367      -29.5868044331       13.8149980763  SOLV      4731            0.0000000000
     14308      4743  TIP3      OH2            10.0036480705      -31.4809075982        9.5518411836  SOLV      4732            0.0000000000
     14309      4743  TIP3      H1              9.0836831573      -31.8069512035        9.6181935455  SOLV      4732            0.0000000000
     14310      4743  TIP3      H2             10.2303570620      -31.7759886186        8.6352320862  SOLV      4732            0.0000000000
     14311      4744  TIP3      OH2            15.0018859144      -30.6645922902        6.8192674647  SOLV      4733            0.0000000000
     14312      4744  TIP3      H1             14.4996614945      -29.9821078450        6.3272094105  SOLV      4733            0.0000000000
     14313      4744  TIP3      H2             15.5548764021      -31.0609274669        6.1173023939  SOLV      4733            0.0000000000
     14314      4745  TIP3      OH2            16.8378245519      -27.7316013157       17.4478178757  SOLV      4734            0.0000000000
     14315      4745  TIP3      H1             16.5422258739      -28.4296352918       18.0756550988  SOLV      4734            0.0000000000
     14316      4745  TIP3      H2             17.7789916815      -27.6609663460       17.7090567883  SOLV      4734            0.0000000000
     14317      4746  TIP3      OH2            16.4768940913      -30.3169908372        9.1688484003  SOLV      4735            0.0000000000
     14318      4746  TIP3      H1             15.8483909989      -30.1169058471        8.4441738306  SOLV      4735            0.0000000000
     14319      4746  TIP3      H2             16.9442218482      -31.0633494297        8.7201500126  SOLV      4735            0.0000000000
     14320      4747  TIP3      OH2             9.4779416038      -29.9657209399       16.2842228196  SOLV      4736            0.0000000000
     14321      4747  TIP3      H1              9.6482376865      -29.2828700716       16.9547047980  SOLV      4736            0.0000000000
     14322      4747  TIP3      H2              8.6938995361      -30.4184667487       16.6126646044  SOLV      4736            0.0000000000
     14323      4748  TIP3      OH2             9.6743411734      -35.2483906864        3.8931149828  SOLV      4737            0.0000000000
     14324      4748  TIP3      H1              9.5582485291      -35.0888994680        4.8382662540  SOLV      4737            0.0000000000
     14325      4748  TIP3      H2              8.9984107842      -34.6583442134        3.5095493612  SOLV      4737            0.0000000000
     14326      4749  TIP3      OH2             5.3342933834      -34.8340557429        7.6220556960  SOLV      4738            0.0000000000
     14327      4749  TIP3      H1              5.5478332927      -34.3740151686        6.7822044010  SOLV      4738            0.0000000000
     14328      4749  TIP3      H2              4.5462169788      -34.3337094734        7.8847034974  SOLV      4738            0.0000000000
     14329      4750  TIP3      OH2            16.6016161103      -27.9752019515       13.3819982659  SOLV      4739            0.0000000000
     14330      4750  TIP3      H1             16.9567428185      -28.6629768519       12.7686508190  SOLV      4739            0.0000000000
     14331      4750  TIP3      H2             16.3613860860      -28.5536732406       14.1373180211  SOLV      4739            0.0000000000
     14332      4751  TIP3      OH2            13.1069983098      -33.0404006089        9.9479822937  SOLV      4740            0.0000000000
     14333      4751  TIP3      H1             12.4848066515      -32.9428246001       10.6887438113  SOLV      4740            0.0000000000
     14334      4751  TIP3      H2             13.9767006928      -32.8979866986       10.3776375683  SOLV      4740            0.0000000000
     14335      4752  TIP3      OH2             7.6080686072      -32.8609419692       10.1224898496  SOLV      4741            0.0000000000
     14336      4752  TIP3      H1              6.6832600999      -32.6640108868        9.8408250682  SOLV      4741            0.0000000000
     14337      4752  TIP3      H2              7.5769165746      -33.8301327252       10.2049900564  SOLV      4741            0.0000000000
     14338      4753  TIP3      OH2            10.4846557039      -32.4902638023        7.1032779008  SOLV      4742            0.0000000000
     14339      4753  TIP3      H1             11.4024966449      -32.7320551394        6.8667774970  SOLV      4742            0.0000000000
     14340      4753  TIP3      H2              9.9960564782      -32.5833555023        6.2620806419  SOLV      4742            0.0000000000
     14341      4754  TIP3      OH2             8.8145222843      -32.4049503148        4.8411388741  SOLV      4743            0.0000000000
     14342      4754  TIP3      H1              8.0807765930      -32.7220671171        4.2830488221  SOLV      4743            0.0000000000
     14343      4754  TIP3      H2              9.3951690743      -32.0163833621        4.1537670843  SOLV      4743            0.0000000000
     14344      4755  TIP3      OH2            19.9817128098      -15.6721462271       14.3100922625  SOLV      4744            0.0000000000
     14345      4755  TIP3      H1             20.0203062151      -15.4626531723       13.3578385803  SOLV      4744            0.0000000000
     14346      4755  TIP3      H2             20.8174365616      -15.2564597345       14.6192480334  SOLV      4744            0.0000000000
     14347      4756  TIP3      OH2             9.5802002845      -24.6074074445       18.5167422976  SOLV      4745            0.0000000000
     14348      4756  TIP3      H1             10.3709524603      -24.3096607109       19.0091655355  SOLV      4745            0.0000000000
     14349      4756  TIP3      H2              8.9136363224      -24.5943620287       19.2328793197  SOLV      4745            0.0000000000
     14350      4757  TIP3      OH2            14.1723827495      -30.1404925910       11.0747525800  SOLV      4746            0.0000000000
     14351      4757  TIP3      H1             14.8607742231      -30.5051199633       10.4921308355  SOLV      4746            0.0000000000
     14352      4757  TIP3      H2             14.3519778481      -30.6180708120       11.8980528194  SOLV      4746            0.0000000000
     14353      4758  TIP3      OH2            13.9916060967      -31.3761617283       14.3679483068  SOLV      4747            0.0000000000
     14354      4758  TIP3      H1             13.1155559387      -30.9384420225       14.3470244586  SOLV      4747            0.0000000000
     14355      4758  TIP3      H2             14.5801209205      -30.6603074301       14.6692142256  SOLV      4747            0.0000000000
     14356      4759  TIP3      OH2            11.2800382703      -27.1746136272        4.9023094832  SOLV      4748            0.0000000000
     14357      4759  TIP3      H1             10.5791385537      -27.8542714882        4.7941989518  SOLV      4748            0.0000000000
     14358      4759  TIP3      H2             11.0811012007      -26.8476249101        5.8145397528  SOLV      4748            0.0000000000
     14359      4760  TIP3      OH2            20.2857989107      -24.7940120828       11.1578626471  SOLV      4749            0.0000000000
     14360      4760  TIP3      H1             20.5414467208      -24.2998688794       10.3486378142  SOLV      4749            0.0000000000
     14361      4760  TIP3      H2             19.4644731749      -25.2531207345       10.8767886384  SOLV      4749            0.0000000000
     14362      4761  TIP3      OH2            15.7942416361      -33.7665162301        3.1200474274  SOLV      4750            0.0000000000
     14363      4761  TIP3      H1             15.1138179873      -34.2370658280        3.6141968982  SOLV      4750            0.0000000000
     14364      4761  TIP3      H2             16.0801118304      -33.0747004943        3.7505402374  SOLV      4750            0.0000000000
     14365      4762  TIP3      OH2            15.4304396520      -23.9261760253       14.8652509865  SOLV      4751            0.0000000000
     14366      4762  TIP3      H1             15.5531683117      -24.2747298723       15.7558032130  SOLV      4751            0.0000000000
     14367      4762  TIP3      H2             14.8696968148      -23.1440427179       15.0018921239  SOLV      4751            0.0000000000
     14368      4763  TIP3      OH2            16.6010862419      -31.5862135702        4.6517460388  SOLV      4752            0.0000000000
     14369      4763  TIP3      H1             17.5642218737      -31.4882253778        4.7896602933  SOLV      4752            0.0000000000
     14370      4763  TIP3      H2             16.3759799968      -30.7953123094        4.1253621531  SOLV      4752            0.0000000000
     14371      4764  TIP3      OH2             8.2868855106      -26.9090583194       11.6259299743  SOLV      4753            0.0000000000
     14372      4764  TIP3      H1              8.6392524419      -27.2052231412       10.7606301185  SOLV      4753            0.0000000000
     14373      4764  TIP3      H2              8.7093535916      -27.5388023841       12.2276929570  SOLV      4753            0.0000000000
     14374      4765  TIP3      OH2            12.7652230429      -25.6714698821        3.1857655086  SOLV      4754            0.0000000000
     14375      4765  TIP3      H1             12.2759951940      -24.8174460199        3.2111916002  SOLV      4754            0.0000000000
     14376      4765  TIP3      H2             12.2067620309      -26.2290990409        3.7726446244  SOLV      4754            0.0000000000
     14377      4766  TIP3      OH2             7.1193951763      -27.8650433389       17.7486817273  SOLV      4755            0.0000000000
     14378      4766  TIP3      H1              7.2064174868      -28.0073388520       18.7104753148  SOLV      4755            0.0000000000
     14379      4766  TIP3      H2              6.2986867504      -28.3563121286       17.5544135483  SOLV      4755            0.0000000000
     14380      4767  TIP3      OH2            14.3721036552      -26.5292111477       17.9568465727  SOLV      4756            0.0000000000
     14381      4767  TIP3      H1             13.7543961508      -27.1810997109       17.5829274977  SOLV      4756            0.0000000000
     14382      4767  TIP3      H2             15.2309997845      -26.8728379091       17.6282433384  SOLV      4756            0.0000000000
     14383      4768  TIP3      OH2            16.8074714542      -21.2944588883       13.7573968906  SOLV      4757            0.0000000000
     14384      4768  TIP3      H1             15.8606059584      -21.4227556607       13.9529348056  SOLV      4757            0.0000000000
     14385      4768  TIP3      H2             17.1920405375      -21.2177989734       14.6356548368  SOLV      4757            0.0000000000
     14386      4769  TIP3      OH2            20.8962666105      -30.6472697349        2.9605981319  SOLV      4758            0.0000000000
     14387      4769  TIP3      H1             20.3453699271      -31.1319374086        2.3027903934  SOLV      4758            0.0000000000
     14388      4769  TIP3      H2             20.8527916721      -29.7551176225        2.5492521462  SOLV      4758            0.0000000000
     14389      4770  TIP3      OH2            23.1737386779      -22.0738456468       13.7295547263  SOLV      4759            0.0000000000
     14390      4770  TIP3      H1             22.1989307381      -22.1381484403       13.6308687499  SOLV      4759            0.0000000000
     14391      4770  TIP3      H2             23.4522773939      -22.3718187731       12.8325225527  SOLV      4759            0.0000000000
     14392      4771  TIP3      OH2            17.7955151509      -22.2814799156        2.1102622182  SOLV      4760            0.0000000000
     14393      4771  TIP3      H1             17.7600446353      -23.0609048462        2.6799913938  SOLV      4760            0.0000000000
     14394      4771  TIP3      H2             18.0901994939      -22.6627454039        1.2633804066  SOLV      4760            0.0000000000
     14395      4772  TIP3      OH2            17.9347099214      -26.1584329109       10.3534725266  SOLV      4761            0.0000000000
     14396      4772  TIP3      H1             17.0028787764      -26.4222724304       10.4665501429  SOLV      4761            0.0000000000
     14397      4772  TIP3      H2             18.2815825367      -26.9541544253        9.8942785882  SOLV      4761            0.0000000000
     14398      4773  TIP3      OH2             9.2694035697      -23.8655265662        7.9555882408  SOLV      4762            0.0000000000
     14399      4773  TIP3      H1              9.1648086275      -23.0762244844        7.3881296688  SOLV      4762            0.0000000000
     14400      4773  TIP3      H2              8.3528203791      -24.1461568519        8.0608138980  SOLV      4762            0.0000000000
     14401      4774  TIP3      OH2             4.9043230950      -30.8250343966        4.9753242356  SOLV      4763            0.0000000000
     14402      4774  TIP3      H1              5.3413316825      -29.9767760143        5.2051108759  SOLV      4763            0.0000000000
     14403      4774  TIP3      H2              4.1351318000      -30.8085496936        5.5863811973  SOLV      4763            0.0000000000
     14404      4775  TIP3      OH2            10.5581822269      -26.2648578155        7.3304718027  SOLV      4764            0.0000000000
     14405      4775  TIP3      H1             10.2250701730      -25.3773869245        7.5628990631  SOLV      4764            0.0000000000
     14406      4775  TIP3      H2             10.2373807695      -26.8012835752        8.0804555406  SOLV      4764            0.0000000000
     14407      4776  TIP3      OH2            11.9685696809      -20.4632259581       12.5850354480  SOLV      4765            0.0000000000
     14408      4776  TIP3      H1             12.4222449207      -19.7677482897       12.0637589111  SOLV      4765            0.0000000000
     14409      4776  TIP3      H2             12.7224431036      -20.9040466374       13.0080350735  SOLV      4765            0.0000000000
     14410      4777  TIP3      OH2             8.4302177752      -21.5238712852        6.4373275296  SOLV      4766            0.0000000000
     14411      4777  TIP3      H1              7.5766558456      -21.4298600357        6.9088670907  SOLV      4766            0.0000000000
     14412      4777  TIP3      H2              8.7542324988      -20.5953500511        6.4555195623  SOLV      4766            0.0000000000
     14413      4778  TIP3      OH2            15.8267508624      -24.1179277131       12.1815926701  SOLV      4767            0.0000000000
     14414      4778  TIP3      H1             15.7449202972      -24.1487403521       13.1623038196  SOLV      4767            0.0000000000
     14415      4778  TIP3      H2             16.5378860967      -24.7549930311       12.0210466281  SOLV      4767            0.0000000000
     14416      4779  TIP3      OH2            15.6005067246      -25.1409498741        1.0530159385  SOLV      4768            0.0000000000
     14417      4779  TIP3      H1             16.1341730575      -25.3881057810        1.8429478240  SOLV      4768            0.0000000000
     14418      4779  TIP3      H2             14.7444680290      -25.5345498791        1.2812636266  SOLV      4768            0.0000000000
     14419      4780  TIP3      OH2            18.2178547210      -18.7700849338       12.7650734477  SOLV      4769            0.0000000000
     14420      4780  TIP3      H1             17.4480693154      -19.3676649324       12.6783288802  SOLV      4769            0.0000000000
     14421      4780  TIP3      H2             18.0885311311      -18.1755752104       11.9932787786  SOLV      4769            0.0000000000
     14422      4781  TIP3      OH2            19.0229446218      -20.4569094699       -0.8386762948  SOLV      4770            0.0000000000
     14423      4781  TIP3      H1             19.5023611078      -19.7411262748       -1.2941070273  SOLV      4770            0.0000000000
     14424      4781  TIP3      H2             18.1159799373      -20.1441379908       -0.9479143836  SOLV      4770            0.0000000000
     14425      4782  TIP3      OH2            17.2184661064      -25.7862530547        3.2306339995  SOLV      4771            0.0000000000
     14426      4782  TIP3      H1             17.0913144735      -26.4841083546        3.9059594619  SOLV      4771            0.0000000000
     14427      4782  TIP3      H2             18.1826322115      -25.8841240302        3.0721321133  SOLV      4771            0.0000000000
     14428      4783  TIP3      OH2             6.3802157761      -21.8851634733       14.1579796573  SOLV      4772            0.0000000000
     14429      4783  TIP3      H1              6.9158396308      -22.6144799824       14.5100262676  SOLV      4772            0.0000000000
     14430      4783  TIP3      H2              6.5183616977      -21.2085993147       14.8309372584  SOLV      4772            0.0000000000
     14431      4784  TIP3      OH2             9.2291812452      -25.4019153498        1.0407513454  SOLV      4773            0.0000000000
     14432      4784  TIP3      H1              9.3349293517      -26.3333230541        0.7692377531  SOLV      4773            0.0000000000
     14433      4784  TIP3      H2              8.9912516859      -25.5057710602        1.9839375252  SOLV      4773            0.0000000000
     14434      4785  TIP3      OH2             8.6562409089      -25.3535916226        3.7517385908  SOLV      4774            0.0000000000
     14435      4785  TIP3      H1              9.4062660754      -25.6523091875        4.2854424859  SOLV      4774            0.0000000000
     14436      4785  TIP3      H2              8.7046526005      -24.3772827613        3.8546391107  SOLV      4774            0.0000000000
     14437      4786  TIP3      OH2             5.9928121814      -28.4300774709        5.8035960598  SOLV      4775            0.0000000000
     14438      4786  TIP3      H1              5.3240779647      -27.9756953570        6.3594003911  SOLV      4775            0.0000000000
     14439      4786  TIP3      H2              6.1185515984      -27.7562425166        5.1066033264  SOLV      4775            0.0000000000
     14440      4787  TIP3      OH2            11.3891246010      -23.3419486351        3.2511701693  SOLV      4776            0.0000000000
     14441      4787  TIP3      H1             10.5095969917      -23.1502320200        3.6358241829  SOLV      4776            0.0000000000
     14442      4787  TIP3      H2             11.3857112598      -22.7241379823        2.5060600628  SOLV      4776            0.0000000000
     14443      4788  TIP3      OH2            13.3000619274      -32.8542476841        7.2387645978  SOLV      4777            0.0000000000
     14444      4788  TIP3      H1             13.9228237990      -32.1073532678        7.1538305968  SOLV      4777            0.0000000000
     14445      4788  TIP3      H2             13.2154138951      -32.9141145550        8.2133342434  SOLV      4777            0.0000000000
     14446      4789  TIP3      OH2            16.0384448192      -29.6371295689       15.4762982017  SOLV      4778            0.0000000000
     14447      4789  TIP3      H1             16.2299183146      -29.0159475395       16.2061128687  SOLV      4778            0.0000000000
     14448      4789  TIP3      H2             16.5714514858      -30.4074961122       15.7307524921  SOLV      4778            0.0000000000
     14449      4790  TIP3      OH2             8.8527331801      -22.6310456190        3.9512490244  SOLV      4779            0.0000000000
     14450      4790  TIP3      H1              8.5328581783      -21.9428664820        3.3250191016  SOLV      4779            0.0000000000
     14451      4790  TIP3      H2              8.6396394252      -22.2147085085        4.8155776226  SOLV      4779            0.0000000000
     14452      4791  TIP3      OH2            22.1554215685      -30.1465203470       15.3957825775  SOLV      4780            0.0000000000
     14453      4791  TIP3      H1             21.2222938705      -30.3524602183       15.1696691105  SOLV      4780            0.0000000000
     14454      4791  TIP3      H2             22.6507997240      -30.5872473148       14.6868593284  SOLV      4780            0.0000000000
     14455      4792  TIP3      OH2            18.7121219960      -28.5114706928        9.0936115715  SOLV      4781            0.0000000000
     14456      4792  TIP3      H1             17.9872503390      -29.1508563902        9.2186853158  SOLV      4781            0.0000000000
     14457      4792  TIP3      H2             19.4591470846      -28.9510933602        9.5684682937  SOLV      4781            0.0000000000
     14458      4793  TIP3      OH2             5.9790392122      -26.4115427361        3.8233033325  SOLV      4782            0.0000000000
     14459      4793  TIP3      H1              6.6927670189      -25.7515565222        3.9044777800  SOLV      4782            0.0000000000
     14460      4793  TIP3      H2              6.3979059273      -27.0041542026        3.1598113203  SOLV      4782            0.0000000000
     14461      4794  TIP3      OH2             5.3468170017      -33.5036412669        5.2349220817  SOLV      4783            0.0000000000
     14462      4794  TIP3      H1              5.3917640697      -32.5263510322        5.2044971560  SOLV      4783            0.0000000000
     14463      4794  TIP3      H2              4.6638616857      -33.6784747831        4.5758643836  SOLV      4783            0.0000000000
     14464      4795  TIP3      OH2            18.5186937860      -19.0305231224        8.5977217039  SOLV      4784            0.0000000000
     14465      4795  TIP3      H1             18.1112965169      -18.6415022350        7.7913405053  SOLV      4784            0.0000000000
     14466      4795  TIP3      H2             19.4651585022      -18.8089962735        8.4307981844  SOLV      4784            0.0000000000
     14467      4796  TIP3      OH2             4.6242501787      -24.1905481671        7.6493061256  SOLV      4785            0.0000000000
     14468      4796  TIP3      H1              4.0183404702      -23.9064734677        8.3483317223  SOLV      4785            0.0000000000
     14469      4796  TIP3      H2              4.2327956026      -23.7476980590        6.8566784249  SOLV      4785            0.0000000000
     14470      4797  TIP3      OH2             6.2745202446      -18.7004379372       18.3795611544  SOLV      4786            0.0000000000
     14471      4797  TIP3      H1              7.1240715127      -18.7036480176       18.8720050210  SOLV      4786            0.0000000000
     14472      4797  TIP3      H2              6.0370718033      -19.6420251011       18.4125580956  SOLV      4786            0.0000000000
     14473      4798  TIP3      OH2            11.0966511759      -19.1601245179       18.8050321191  SOLV      4787            0.0000000000
     14474      4798  TIP3      H1             12.0147199816      -19.4675288240       18.8688778015  SOLV      4787            0.0000000000
     14475      4798  TIP3      H2             10.7544441012      -19.7847641971       18.1335142435  SOLV      4787            0.0000000000
     14476      4799  TIP3      OH2            10.8951824997      -23.4049613119        0.1562031297  SOLV      4788            0.0000000000
     14477      4799  TIP3      H1             10.3250259261      -24.1345670510        0.4990537049  SOLV      4788            0.0000000000
     14478      4799  TIP3      H2             11.6143436339      -23.9190756798       -0.2578530369  SOLV      4788            0.0000000000
     14479      4800  TIP3      OH2            15.2105427695      -22.9754177041       -0.6911602523  SOLV      4789            0.0000000000
     14480      4800  TIP3      H1             15.5947046919      -23.6680522403       -0.1153946465  SOLV      4789            0.0000000000
     14481      4800  TIP3      H2             15.7285384292      -23.0681444567       -1.5174139627  SOLV      4789            0.0000000000
     14482      4801  TIP3      OH2             7.5429466198      -24.6924223460       20.4035481875  SOLV      4790            0.0000000000
     14483      4801  TIP3      H1              7.6049544660      -25.6405786259       20.5973311564  SOLV      4790            0.0000000000
     14484      4801  TIP3      H2              6.6721760361      -24.6381916335       19.9506079464  SOLV      4790            0.0000000000
     14485      4802  TIP3      OH2             7.3305615322      -28.2622672350        2.3967796834  SOLV      4791            0.0000000000
     14486      4802  TIP3      H1              7.9032988227      -28.5616924109        3.1258012831  SOLV      4791            0.0000000000
     14487      4802  TIP3      H2              7.9940039799      -28.1944158790        1.6743450926  SOLV      4791            0.0000000000
     14488      4803  TIP3      OH2            13.6445125358      -23.7997516401       18.1568334486  SOLV      4792            0.0000000000
     14489      4803  TIP3      H1             13.1681765360      -23.6258644608       17.3192298983  SOLV      4792            0.0000000000
     14490      4803  TIP3      H2             13.9104075526      -24.7409518189       18.0623867172  SOLV      4792            0.0000000000
     14491      4804  TIP3      OH2            12.5311332806      -26.2032338868        0.4819039166  SOLV      4793            0.0000000000
     14492      4804  TIP3      H1             12.5095414449      -26.1088250741        1.4549674230  SOLV      4793            0.0000000000
     14493      4804  TIP3      H2             12.5460178330      -27.1837542170        0.3967309250  SOLV      4793            0.0000000000
     14494      4805  TIP3      OH2            18.5540719977      -23.6983838005       14.2944588714  SOLV      4794            0.0000000000
     14495      4805  TIP3      H1             19.3159216093      -23.3086555846       13.8171424351  SOLV      4794            0.0000000000
     14496      4805  TIP3      H2             17.8129684694      -23.2059519507       13.9095404839  SOLV      4794            0.0000000000
     14497      4806  TIP3      OH2             8.8265719069      -27.5388406365       20.3101257793  SOLV      4795            0.0000000000
     14498      4806  TIP3      H1              9.7102236405      -27.7747345280       19.9915544822  SOLV      4795            0.0000000000
     14499      4806  TIP3      H2              9.0493696036      -27.1045990111       21.1608337008  SOLV      4795            0.0000000000
     14500      4807  TIP3      OH2             9.3781708413      -29.1558858202        4.5641797118  SOLV      4796            0.0000000000
     14501      4807  TIP3      H1              9.1505437175      -29.6087696913        5.3901502635  SOLV      4796            0.0000000000
     14502      4807  TIP3      H2              9.7907705451      -29.8801597524        4.0460548270  SOLV      4796            0.0000000000
     14503      4808  TIP3      OH2            12.2022470892      -28.4838299103       16.9232802063  SOLV      4797            0.0000000000
     14504      4808  TIP3      H1             11.3815672220      -27.9494724082       16.8925928655  SOLV      4797            0.0000000000
     14505      4808  TIP3      H2             12.6860978876      -28.1576567699       16.1282066420  SOLV      4797            0.0000000000
     14506      4809  TIP3      OH2            10.4209207397      -31.1778196748        2.9853851168  SOLV      4798            0.0000000000
     14507      4809  TIP3      H1             10.1921195012      -31.1180802223        2.0341935904  SOLV      4798            0.0000000000
     14508      4809  TIP3      H2             11.4006671351      -31.2014234839        2.9302279320  SOLV      4798            0.0000000000
     14509      4810  TIP3      OH2            17.3663179579      -24.3198399724       18.1598309854  SOLV      4799            0.0000000000
     14510      4810  TIP3      H1             18.0293090767      -24.8120706618       17.6530787869  SOLV      4799            0.0000000000
     14511      4810  TIP3      H2             17.1650174102      -24.9559675037       18.8702331940  SOLV      4799            0.0000000000
     14512      4811  TIP3      OH2            18.5832447678      -27.9407436084       -0.3399894600  SOLV      4800            0.0000000000
     14513      4811  TIP3      H1             18.3993158366      -28.3542815079       -1.2087927819  SOLV      4800            0.0000000000
     14514      4811  TIP3      H2             18.2497801603      -27.0325411337       -0.5327782007  SOLV      4800            0.0000000000
     14515      4812  TIP3      OH2            13.2097877781      -30.6103947236       18.2630633542  SOLV      4801            0.0000000000
     14516      4812  TIP3      H1             13.3227758206      -31.3997948413       17.7115108986  SOLV      4801            0.0000000000
     14517      4812  TIP3      H2             12.8321844702      -29.9581970450       17.6283449911  SOLV      4801            0.0000000000
     14518      4813  TIP3      OH2            13.6255743786      -27.4047700987       14.9339785024  SOLV      4802            0.0000000000
     14519      4813  TIP3      H1             14.4602760299      -27.3256988843       14.4542544230  SOLV      4802            0.0000000000
     14520      4813  TIP3      H2             13.0399880391      -26.7895633151       14.4432973566  SOLV      4802            0.0000000000
     14521      4814  TIP3      OH2            19.3544154425      -27.6984699628       18.6747399811  SOLV      4803            0.0000000000
     14522      4814  TIP3      H1             19.7077881604      -28.4176944642       19.2467903981  SOLV      4803            0.0000000000
     14523      4814  TIP3      H2             20.1588873939      -27.3763804227       18.2431773490  SOLV      4803            0.0000000000
     14524      4815  TIP3      OH2            19.8424321132      -25.1702439576       16.1380642287  SOLV      4804            0.0000000000
     14525      4815  TIP3      H1             19.2791611237      -24.6201698700       15.5438529863  SOLV      4804            0.0000000000
     14526      4815  TIP3      H2             20.7248466742      -24.9737684657       15.7478919526  SOLV      4804            0.0000000000
     14527      4816  TIP3      OH2            11.7781550118      -29.3381986235       20.3740501410  SOLV      4805            0.0000000000
     14528      4816  TIP3      H1             11.2317086480      -30.0961666066       20.6012684465  SOLV      4805            0.0000000000
     14529      4816  TIP3      H2             12.2780737657      -29.6600410435       19.5971118962  SOLV      4805            0.0000000000
     14530      4817  TIP3      OH2            15.8204860927      -29.7897515152       18.8534775668  SOLV      4806            0.0000000000
     14531      4817  TIP3      H1             16.0240368224      -30.3284834045       19.6428650840  SOLV      4806            0.0000000000
     14532      4817  TIP3      H2             14.8814388839      -30.0319579867       18.7104140713  SOLV      4806            0.0000000000
     14533      4818  TIP3      OH2            18.3326901637      -30.6436676160       17.6757189332  SOLV      4807            0.0000000000
     14534      4818  TIP3      H1             17.5836758800      -30.5084961961       18.2799251515  SOLV      4807            0.0000000000
     14535      4818  TIP3      H2             18.9751379700      -31.0970850003       18.2439706906  SOLV      4807            0.0000000000
     14536      4819  TIP3      OH2             8.5461160792      -20.5832783215        2.0949894662  SOLV      4808            0.0000000000
     14537      4819  TIP3      H1              9.4777579355      -20.6763708558        1.8276115156  SOLV      4808            0.0000000000
     14538      4819  TIP3      H2              8.2070646579      -20.0836074847        1.3269294998  SOLV      4808            0.0000000000
     14539      4820  TIP3      OH2             3.2817898490      -26.7798313849        4.1916355662  SOLV      4809            0.0000000000
     14540      4820  TIP3      H1              4.2306448901      -26.5761900260        4.0372229974  SOLV      4809            0.0000000000
     14541      4820  TIP3      H2              3.2074239155      -27.6673971873        3.7807215400  SOLV      4809            0.0000000000
     14542      4821  TIP3      OH2             2.4849303727      -20.6600261839        8.3605000738  SOLV      4810            0.0000000000
     14543      4821  TIP3      H1              1.8197020386      -21.2559743172        7.9510835044  SOLV      4810            0.0000000000
     14544      4821  TIP3      H2              2.9072937384      -21.2731121271        8.9983765134  SOLV      4810            0.0000000000
     14545      4822  TIP3      OH2             3.7955986497      -22.2193480555       10.2367681097  SOLV      4811            0.0000000000
     14546      4822  TIP3      H1              3.6345755720      -22.9119174505       10.8999715733  SOLV      4811            0.0000000000
     14547      4822  TIP3      H2              4.2986426822      -21.5806933264       10.7724121131  SOLV      4811            0.0000000000
     14548      4823  TIP3      OH2            21.0372828782      -18.0898437834        8.2325596965  SOLV      4812            0.0000000000
     14549      4823  TIP3      H1             21.3333135658      -17.8030052013        9.1156317140  SOLV      4812            0.0000000000
     14550      4823  TIP3      H2             21.7644081277      -17.7882375093        7.6654691428  SOLV      4812            0.0000000000
     14551      4824  TIP3      OH2            21.3251501016      -17.9602920258       11.0506520892  SOLV      4813            0.0000000000
     14552      4824  TIP3      H1             20.9140497940      -18.8513056503       11.0412952282  SOLV      4813            0.0000000000
     14553      4824  TIP3      H2             22.1032772824      -18.1461725454       11.5992729586  SOLV      4813            0.0000000000
     14554      4825  TIP3      OH2            21.8129501983      -21.1628942917       16.8719061449  SOLV      4814            0.0000000000
     14555      4825  TIP3      H1             20.9982433140      -20.8999531108       17.3126494456  SOLV      4814            0.0000000000
     14556      4825  TIP3      H2             22.2782073047      -20.3021713847       16.7970671997  SOLV      4814            0.0000000000
     14557      4826  TIP3      OH2            19.9795273147      -26.0651796199        2.9582935057  SOLV      4815            0.0000000000
     14558      4826  TIP3      H1             20.6488270215      -25.4298570423        2.6308002899  SOLV      4815            0.0000000000
     14559      4826  TIP3      H2             20.4389496325      -26.4332633720        3.7476613215  SOLV      4815            0.0000000000
     14560      4827  TIP3      OH2            21.2536043040      -27.3790628721        5.0053199125  SOLV      4816            0.0000000000
     14561      4827  TIP3      H1             20.6050540303      -27.7964715921        5.6130523247  SOLV      4816            0.0000000000
     14562      4827  TIP3      H2             21.9378831082      -27.0360299954        5.6196129956  SOLV      4816            0.0000000000
     14563      4828  TIP3      OH2            21.7926381894      -23.4533294064        9.2737168121  SOLV      4817            0.0000000000
     14564      4828  TIP3      H1             22.3516560327      -24.1521223050        8.8719644260  SOLV      4817            0.0000000000
     14565      4828  TIP3      H2             21.8288537311      -22.7459379438        8.6022017695  SOLV      4817            0.0000000000
     14566      4829  TIP3      OH2            20.0768908482      -20.4571247448       11.2456617035  SOLV      4818            0.0000000000
     14567      4829  TIP3      H1             19.3362150935      -20.0941344244       11.7589713566  SOLV      4818            0.0000000000
     14568      4829  TIP3      H2             19.6173372509      -20.9248538470       10.5149987700  SOLV      4818            0.0000000000
     14569      4830  TIP3      OH2            20.5959993480      -28.3154666120        1.4580956943  SOLV      4819            0.0000000000
     14570      4830  TIP3      H1             19.8987637793      -28.2553334300        0.7660771795  SOLV      4819            0.0000000000
     14571      4830  TIP3      H2             20.3264605176      -27.5614017158        2.0229747997  SOLV      4819            0.0000000000
     14572      4831  TIP3      OH2            19.3195535445      -31.7316372317        0.9790006483  SOLV      4820            0.0000000000
     14573      4831  TIP3      H1             19.0325803482      -31.0419424071        0.3687073470  SOLV      4820            0.0000000000
     14574      4831  TIP3      H2             18.8740437065      -32.4996551874        0.5975727547  SOLV      4820            0.0000000000
     14575      4832  TIP3      OH2            19.3619069736      -28.7985073081        6.4381718715  SOLV      4821            0.0000000000
     14576      4832  TIP3      H1             19.3666280501      -29.7673654823        6.3662585668  SOLV      4821            0.0000000000
     14577      4832  TIP3      H2             19.1862645363      -28.6656984178        7.3972688822  SOLV      4821            0.0000000000
     14578      4833  TIP3      OH2             5.6336728612      -28.1686148770       13.9736055121  SOLV      4822            0.0000000000
     14579      4833  TIP3      H1              5.6018160400      -28.4709832727       13.0392300286  SOLV      4822            0.0000000000
     14580      4833  TIP3      H2              6.6081941792      -28.0783351243       14.0975005450  SOLV      4822            0.0000000000
     14581      4834  TIP3      OH2            22.2744228668      -24.5114474638       15.0209359902  SOLV      4823            0.0000000000
     14582      4834  TIP3      H1             22.9697061679      -25.2014634984       14.9183338753  SOLV      4823            0.0000000000
     14583      4834  TIP3      H2             22.5631558956      -23.8434723174       14.3769780423  SOLV      4823            0.0000000000
     14584      4835  TIP3      OH2            24.0539629411      -26.5136997286       15.1661511189  SOLV      4824            0.0000000000
     14585      4835  TIP3      H1             23.3335859232      -26.9683761232       15.6474288653  SOLV      4824            0.0000000000
     14586      4835  TIP3      H2             24.7736933007      -27.1700503756       15.2886667501  SOLV      4824            0.0000000000
     14587      4836  TIP3      OH2            19.3799173871      -31.6663644859        5.3016993421  SOLV      4825            0.0000000000
     14588      4836  TIP3      H1             19.7576852470      -32.5350009646        5.5090447260  SOLV      4825            0.0000000000
     14589      4836  TIP3      H2             19.9923131125      -31.3446432981        4.6134263966  SOLV      4825            0.0000000000
     14590      4837  TIP3      OH2            20.8474632853      -29.6140903423       10.3154295703  SOLV      4826            0.0000000000
     14591      4837  TIP3      H1             21.7294649039      -29.4504929624        9.9199142750  SOLV      4826            0.0000000000
     14592      4837  TIP3      H2             21.0315583378      -29.4006846680       11.2489920800  SOLV      4826            0.0000000000
     14593      4838  TIP3      OH2            21.5267848501      -28.3343480022       12.6989125810  SOLV      4827            0.0000000000
     14594      4838  TIP3      H1             20.7579640050      -27.9881115411       13.1915953076  SOLV      4827            0.0000000000
     14595      4838  TIP3      H2             21.8533726550      -27.5421497066       12.2205169289  SOLV      4827            0.0000000000
     14596      4839  TIP3      OH2             5.4740511661      -31.4341325926       14.7193688589  SOLV      4828            0.0000000000
     14597      4839  TIP3      H1              5.9978021718      -31.5165110600       13.8941337751  SOLV      4828            0.0000000000
     14598      4839  TIP3      H2              5.6452759161      -30.5188313597       14.9652887823  SOLV      4828            0.0000000000
     14599      4840  TIP3      OH2            17.1596504153      -19.3999336631        4.2225829639  SOLV      4829            0.0000000000
     14600      4840  TIP3      H1             17.9638273907      -19.9771553552        4.2916614926  SOLV      4829            0.0000000000
     14601      4840  TIP3      H2             17.4599500301      -18.6555253045        4.8426984572  SOLV      4829            0.0000000000
     14602      4841  TIP3      OH2             7.9078334616      -21.4454337957       18.6280119314  SOLV      4830            0.0000000000
     14603      4841  TIP3      H1              6.9658890881      -21.6520555972       18.4755095793  SOLV      4830            0.0000000000
     14604      4841  TIP3      H2              7.9954102925      -21.6243565694       19.5729950963  SOLV      4830            0.0000000000
     14605      4842  TIP3      OH2             9.7263483490      -21.0776319030       14.1166773304  SOLV      4831            0.0000000000
     14606      4842  TIP3      H1              9.2031906020      -20.3529781581       13.7201791607  SOLV      4831            0.0000000000
     14607      4842  TIP3      H2             10.5721384696      -20.9145003087       13.6518934309  SOLV      4831            0.0000000000
     14608      4843  TIP3      OH2            14.0865762362      -18.7435035949       15.4998672159  SOLV      4832            0.0000000000
     14609      4843  TIP3      H1             14.5072177986      -18.8202814813       16.3649758582  SOLV      4832            0.0000000000
     14610      4843  TIP3      H2             14.7346016122      -18.1981100401       14.9992972291  SOLV      4832            0.0000000000
     14611      4844  TIP3      OH2            15.9192270915      -17.1705747986       14.1851357986  SOLV      4833            0.0000000000
     14612      4844  TIP3      H1             16.5564667832      -17.6114016980       13.5998455325  SOLV      4833            0.0000000000
     14613      4844  TIP3      H2             16.5154009716      -16.6204347880       14.7336561591  SOLV      4833            0.0000000000
     14614      4845  TIP3      OH2             6.4693280873      -18.4533379569       14.3213203925  SOLV      4834            0.0000000000
     14615      4845  TIP3      H1              5.5378309931      -18.2020341189       14.1238998835  SOLV      4834            0.0000000000
     14616      4845  TIP3      H2              6.5552270864      -18.0972296783       15.2154831460  SOLV      4834            0.0000000000
     14617      4846  TIP3      OH2             8.8131234128      -18.7255174092       12.9453995414  SOLV      4835            0.0000000000
     14618      4846  TIP3      H1              7.9440507411      -18.6222353786       13.4002588784  SOLV      4835            0.0000000000
     14619      4846  TIP3      H2              8.5930956424      -18.4246806956       12.0447071146  SOLV      4835            0.0000000000
     14620      4847  TIP3      OH2            13.0648190191      -18.5017674726       10.9047064319  SOLV      4836            0.0000000000
     14621      4847  TIP3      H1             12.3600385159      -18.3352584992       10.2516660176  SOLV      4836            0.0000000000
     14622      4847  TIP3      H2             13.1842317182      -17.6156535023       11.3058391235  SOLV      4836            0.0000000000
     14623      4848  TIP3      OH2            15.7475539143      -19.0967343382       11.4629686267  SOLV      4837            0.0000000000
     14624      4848  TIP3      H1             14.8246767165      -18.8913142922       11.2196610811  SOLV      4837            0.0000000000
     14625      4848  TIP3      H2             16.2432786827      -18.4126302175       10.9775700988  SOLV      4837            0.0000000000
     14626      4849  TIP3      OH2            17.7230786866      -17.2485302977       10.5451057511  SOLV      4838            0.0000000000
     14627      4849  TIP3      H1             17.6494257887      -16.3867264725       10.0782302024  SOLV      4838            0.0000000000
     14628      4849  TIP3      H2             18.0760290345      -17.8258493832        9.8313432765  SOLV      4838            0.0000000000
     14629      4850  TIP3      OH2             5.5914248983      -20.6020965828       11.7767553739  SOLV      4839            0.0000000000
     14630      4850  TIP3      H1              5.8303504946      -20.9041477839       12.6793632284  SOLV      4839            0.0000000000
     14631      4850  TIP3      H2              6.2937393472      -21.0652399534       11.2667563011  SOLV      4839            0.0000000000
     14632      4851  TIP3      OH2             7.5262975201      -21.8985545115       10.3922048828  SOLV      4840            0.0000000000
     14633      4851  TIP3      H1              7.6605750688      -22.7397129650       10.8925939171  SOLV      4840            0.0000000000
     14634      4851  TIP3      H2              8.4451723256      -21.5688716973       10.3337205435  SOLV      4840            0.0000000000
     14635      4852  TIP3      OH2            10.2294970927      -20.9737082969       10.4216043293  SOLV      4841            0.0000000000
     14636      4852  TIP3      H1             10.4900669697      -21.9098979985       10.3139474374  SOLV      4841            0.0000000000
     14637      4852  TIP3      H2             10.7092591127      -20.7705166721       11.2481792162  SOLV      4841            0.0000000000
     14638      4853  TIP3      OH2             3.4295440072      -22.8261549028        5.6458678887  SOLV      4842            0.0000000000
     14639      4853  TIP3      H1              2.5639534340      -23.1621598190        5.3454441232  SOLV      4842            0.0000000000
     14640      4853  TIP3      H2              3.3474424240      -21.8999922827        5.3459959642  SOLV      4842            0.0000000000
     14641      4854  TIP3      OH2            11.2039603671      -21.0438233687        1.4669939255  SOLV      4843            0.0000000000
     14642      4854  TIP3      H1             12.0058467601      -20.7110013287        1.0265221949  SOLV      4843            0.0000000000
     14643      4854  TIP3      H2             10.9858979316      -21.7975563197        0.8678917186  SOLV      4843            0.0000000000
     14644      4855  TIP3      OH2             4.1994347002      -22.6778279693        2.0375552094  SOLV      4844            0.0000000000
     14645      4855  TIP3      H1              4.2056551763      -22.4705857880        2.9821171211  SOLV      4844            0.0000000000
     14646      4855  TIP3      H2              5.0759231349      -23.1094007613        1.9091922593  SOLV      4844            0.0000000000
     14647      4856  TIP3      OH2            20.6014262685      -18.4038244582       14.1642865553  SOLV      4845            0.0000000000
     14648      4856  TIP3      H1             19.7629586226      -18.6108755026       13.7061964749  SOLV      4845            0.0000000000
     14649      4856  TIP3      H2             20.4462946207      -17.4781625493       14.4212810904  SOLV      4845            0.0000000000
     14650      4857  TIP3      OH2            33.2855737575      -24.5894507097        1.9722541443  SOLV      4846            0.0000000000
     14651      4857  TIP3      H1             32.9504761351      -23.7391300371        1.6187292660  SOLV      4846            0.0000000000
     14652      4857  TIP3      H2             32.6222382570      -25.2030579016        1.6312936203  SOLV      4846            0.0000000000
     14653      4858  TIP3      OH2            32.6613637642      -24.5725345577        5.9498165688  SOLV      4847            0.0000000000
     14654      4858  TIP3      H1             33.2989321864      -24.7807948011        6.6633143249  SOLV      4847            0.0000000000
     14655      4858  TIP3      H2             32.8017023572      -25.3245268513        5.3610160416  SOLV      4847            0.0000000000
     14656      4859  TIP3      OH2            26.2021801649      -25.6661256053        9.4870797769  SOLV      4848            0.0000000000
     14657      4859  TIP3      H1             26.5058878067      -26.4001909270       10.0599494188  SOLV      4848            0.0000000000
     14658      4859  TIP3      H2             27.0556204324      -25.2767320066        9.2458147485  SOLV      4848            0.0000000000
     14659      4860  TIP3      OH2            25.9768336530      -21.6298530694        6.6330108435  SOLV      4849            0.0000000000
     14660      4860  TIP3      H1             25.9188159652      -22.6093780739        6.6468768763  SOLV      4849            0.0000000000
     14661      4860  TIP3      H2             26.9449224748      -21.5154380558        6.5909573307  SOLV      4849            0.0000000000
     14662      4861  TIP3      OH2            22.9503521218      -29.6642845423        4.5594846707  SOLV      4850            0.0000000000
     14663      4861  TIP3      H1             22.5149318817      -28.8160862697        4.7493571443  SOLV      4850            0.0000000000
     14664      4861  TIP3      H2             22.2593016443      -30.1050375035        4.0335669787  SOLV      4850            0.0000000000
     14665      4862  TIP3      OH2            23.5929895948      -26.7011984701        6.2930437352  SOLV      4851            0.0000000000
     14666      4862  TIP3      H1             24.0577504678      -27.5129372133        6.6059545911  SOLV      4851            0.0000000000
     14667      4862  TIP3      H2             24.2782490520      -26.2861870457        5.7505080479  SOLV      4851            0.0000000000
     14668      4863  TIP3      OH2            32.1524484103      -17.1964773431        2.8190943832  SOLV      4852            0.0000000000
     14669      4863  TIP3      H1             32.8589959204      -17.7841239539        2.5131182074  SOLV      4852            0.0000000000
     14670      4863  TIP3      H2             32.1384163496      -17.3950140030        3.7654893633  SOLV      4852            0.0000000000
     14671      4864  TIP3      OH2            31.1784745564      -22.3181105896        6.3382439696  SOLV      4853            0.0000000000
     14672      4864  TIP3      H1             31.5984235974      -23.1803331912        6.1009543930  SOLV      4853            0.0000000000
     14673      4864  TIP3      H2             32.0011947227      -21.8039840236        6.4739345952  SOLV      4853            0.0000000000
     14674      4865  TIP3      OH2            28.6198451522      -30.8092302552        6.2745200391  SOLV      4854            0.0000000000
     14675      4865  TIP3      H1             28.4012990458      -30.1488867963        5.5819111769  SOLV      4854            0.0000000000
     14676      4865  TIP3      H2             28.0766324834      -31.5648358355        6.0081905796  SOLV      4854            0.0000000000
     14677      4866  TIP3      OH2            24.9701530236      -28.8236006487        7.2376776218  SOLV      4855            0.0000000000
     14678      4866  TIP3      H1             25.8063589990      -28.9449469286        7.7509340033  SOLV      4855            0.0000000000
     14679      4866  TIP3      H2             25.2015198283      -29.3680487771        6.4567326937  SOLV      4855            0.0000000000
     14680      4867  TIP3      OH2            29.5087242371      -26.7989045592        5.3364784465  SOLV      4856            0.0000000000
     14681      4867  TIP3      H1             30.4596588545      -27.0387807494        5.3962744285  SOLV      4856            0.0000000000
     14682      4867  TIP3      H2             29.1186996790      -27.6402185446        5.0181844315  SOLV      4856            0.0000000000
     14683      4868  TIP3      OH2            32.1655089811      -22.4072875722        0.6461807644  SOLV      4857            0.0000000000
     14684      4868  TIP3      H1             31.7964689693      -22.5456257853       -0.2388330076  SOLV      4857            0.0000000000
     14685      4868  TIP3      H2             31.6896347711      -21.5940303450        0.9198365060  SOLV      4857            0.0000000000
     14686      4869  TIP3      OH2            29.8078225473      -23.2202942389        8.5082839821  SOLV      4858            0.0000000000
     14687      4869  TIP3      H1             29.2351422274      -22.5061956043        8.8607321620  SOLV      4858            0.0000000000
     14688      4869  TIP3      H2             30.2501955827      -22.7659310858        7.7571044055  SOLV      4858            0.0000000000
     14689      4870  TIP3      OH2            27.3250219866      -29.4477119230        8.3018978824  SOLV      4859            0.0000000000
     14690      4870  TIP3      H1             28.0836977375      -28.9311004460        8.6302539888  SOLV      4859            0.0000000000
     14691      4870  TIP3      H2             27.7525304680      -30.0776679462        7.6912983580  SOLV      4859            0.0000000000
     14692      4871  TIP3      OH2            28.1009391095      -21.2085599187        9.5023014813  SOLV      4860            0.0000000000
     14693      4871  TIP3      H1             27.8511466747      -20.3282686864        9.1547061662  SOLV      4860            0.0000000000
     14694      4871  TIP3      H2             27.3051819673      -21.3988573623       10.0433638932  SOLV      4860            0.0000000000
     14695      4872  TIP3      OH2            21.9546106480      -24.3486565890        1.8587327951  SOLV      4861            0.0000000000
     14696      4872  TIP3      H1             21.6098458877      -24.0697769885        0.9898994338  SOLV      4861            0.0000000000
     14697      4872  TIP3      H2             22.3391714704      -23.5165336119        2.2024449325  SOLV      4861            0.0000000000
     14698      4873  TIP3      OH2            33.6695691261      -18.5710603009        0.7450756814  SOLV      4862            0.0000000000
     14699      4873  TIP3      H1             33.9520220022      -19.4605516778        0.9912056891  SOLV      4862            0.0000000000
     14700      4873  TIP3      H2             34.3685958048      -18.0326566955        1.1960846099  SOLV      4862            0.0000000000
     14701      4874  TIP3      OH2            31.6352604496      -26.0883283899        0.0129147317  SOLV      4863            0.0000000000
     14702      4874  TIP3      H1             30.7520696442      -25.6735365007        0.1045881489  SOLV      4863            0.0000000000
     14703      4874  TIP3      H2             32.0307664575      -25.5069964300       -0.6486324496  SOLV      4863            0.0000000000
     14704      4875  TIP3      OH2            31.1740203615      -28.3916555851       -2.6042094107  SOLV      4864            0.0000000000
     14705      4875  TIP3      H1             31.5870801747      -27.9183740394       -1.8633131128  SOLV      4864            0.0000000000
     14706      4875  TIP3      H2             31.5222798101      -29.2841826790       -2.4722408786  SOLV      4864            0.0000000000
     14707      4876  TIP3      OH2            27.4106582382      -25.3423314762        4.2001043934  SOLV      4865            0.0000000000
     14708      4876  TIP3      H1             26.9999589648      -25.9392131380        3.5389051889  SOLV      4865            0.0000000000
     14709      4876  TIP3      H2             28.1609942482      -25.8830088148        4.5290118349  SOLV      4865            0.0000000000
     14710      4877  TIP3      OH2            28.6687292646      -21.2259417739        5.6548421692  SOLV      4866            0.0000000000
     14711      4877  TIP3      H1             28.5229772331      -21.5810045791        4.7654777731  SOLV      4866            0.0000000000
     14712      4877  TIP3      H2             29.5580780196      -21.5870392305        5.8694380090  SOLV      4866            0.0000000000
     14713      4878  TIP3      OH2            28.6386119749      -25.6058018150        7.7317954423  SOLV      4867            0.0000000000
     14714      4878  TIP3      H1             29.0212777985      -25.9219377450        6.8833598360  SOLV      4867            0.0000000000
     14715      4878  TIP3      H2             29.1567497611      -24.7888420440        7.9012619963  SOLV      4867            0.0000000000
     14716      4879  TIP3      OH2            33.7222437766      -19.2361742662        5.3225690129  SOLV      4868            0.0000000000
     14717      4879  TIP3      H1             33.8897371239      -18.4363449906        5.8490939053  SOLV      4868            0.0000000000
     14718      4879  TIP3      H2             33.7704316559      -19.9526119157        5.9815832468  SOLV      4868            0.0000000000
     14719      4880  TIP3      OH2            30.1380740865      -20.0783618113       10.9821990977  SOLV      4869            0.0000000000
     14720      4880  TIP3      H1             29.5142218349      -19.4613759201       11.4236429351  SOLV      4869            0.0000000000
     14721      4880  TIP3      H2             29.5087260982      -20.6075549559       10.4499738431  SOLV      4869            0.0000000000
     14722      4881  TIP3      OH2            27.7481827032      -24.5238053670       12.0873595954  SOLV      4870            0.0000000000
     14723      4881  TIP3      H1             27.7571507389      -23.6191222090       12.4586437644  SOLV      4870            0.0000000000
     14724      4881  TIP3      H2             26.7909914141      -24.7144953788       12.1059366786  SOLV      4870            0.0000000000
     14725      4882  TIP3      OH2            30.9478249546      -19.9345181317        0.9536476522  SOLV      4871            0.0000000000
     14726      4882  TIP3      H1             31.5493833922      -19.2286880528        1.2228467166  SOLV      4871            0.0000000000
     14727      4882  TIP3      H2             30.2240634667      -19.4428380950        0.5439306470  SOLV      4871            0.0000000000
     14728      4883  TIP3      OH2            28.0613851660      -18.4318409829       11.8246319564  SOLV      4872            0.0000000000
     14729      4883  TIP3      H1             27.7087257526      -18.3566526819       10.9180960415  SOLV      4872            0.0000000000
     14730      4883  TIP3      H2             27.2495147837      -18.6228992603       12.3464275667  SOLV      4872            0.0000000000
     14731      4884  TIP3      OH2            26.0563730165      -26.8869570992        2.2245500420  SOLV      4873            0.0000000000
     14732      4884  TIP3      H1             25.3233026674      -26.5166268718        1.6904515802  SOLV      4873            0.0000000000
     14733      4884  TIP3      H2             25.8227291192      -27.8202147108        2.2807862401  SOLV      4873            0.0000000000
     14734      4885  TIP3      OH2            23.8292782784      -23.0593568085       11.3074333125  SOLV      4874            0.0000000000
     14735      4885  TIP3      H1             23.2102691223      -23.3126724560       10.5966366078  SOLV      4874            0.0000000000
     14736      4885  TIP3      H2             24.2446305922      -23.9146833738       11.5513807859  SOLV      4874            0.0000000000
     14737      4886  TIP3      OH2            22.4410706745      -21.1287811860        7.5725290342  SOLV      4875            0.0000000000
     14738      4886  TIP3      H1             23.3873861848      -21.2963796435        7.4620921275  SOLV      4875            0.0000000000
     14739      4886  TIP3      H2             22.4592097470      -20.3937827525        8.2071289092  SOLV      4875            0.0000000000
     14740      4887  TIP3      OH2            32.0909032134      -18.8269225367        9.5569290074  SOLV      4876            0.0000000000
     14741      4887  TIP3      H1             32.0635100921      -17.8962945866        9.8676539363  SOLV      4876            0.0000000000
     14742      4887  TIP3      H2             31.3675756263      -19.2196191767       10.0939079758  SOLV      4876            0.0000000000
     14743      4888  TIP3      OH2            29.7795833092      -17.4797337626       -0.9764656891  SOLV      4877            0.0000000000
     14744      4888  TIP3      H1             29.2813956066      -17.6438329713       -1.7968888289  SOLV      4877            0.0000000000
     14745      4888  TIP3      H2             29.4237220608      -16.6175009569       -0.6842796592  SOLV      4877            0.0000000000
     14746      4889  TIP3      OH2            24.0787926235      -19.0434007786        2.9457600759  SOLV      4878            0.0000000000
     14747      4889  TIP3      H1             24.5861679344      -19.0873392931        3.7879145818  SOLV      4878            0.0000000000
     14748      4889  TIP3      H2             23.6899406666      -19.9351171291        2.9206721616  SOLV      4878            0.0000000000
     14749      4890  TIP3      OH2            31.7687953439      -18.5548725747       -4.4787448729  SOLV      4879            0.0000000000
     14750      4890  TIP3      H1             32.4568486254      -19.1567115413       -4.7870802837  SOLV      4879            0.0000000000
     14751      4890  TIP3      H2             32.0226309720      -18.4386323458       -3.5387723132  SOLV      4879            0.0000000000
     14752      4891  TIP3      OH2            32.2664692095      -18.2002196074       -1.7611887628  SOLV      4880            0.0000000000
     14753      4891  TIP3      H1             31.3575167864      -18.0430836018       -1.4144744063  SOLV      4880            0.0000000000
     14754      4891  TIP3      H2             32.7398334559      -18.4042708869       -0.9271861399  SOLV      4880            0.0000000000
     14755      4892  TIP3      OH2            25.8848897179      -21.2394244350       11.1266000646  SOLV      4881            0.0000000000
     14756      4892  TIP3      H1             26.3827250672      -21.3907361570       11.9545542319  SOLV      4881            0.0000000000
     14757      4892  TIP3      H2             25.1431197653      -21.8720117204       11.2187647335  SOLV      4881            0.0000000000
     14758      4893  TIP3      OH2            29.3244570578      -27.8092393651        9.2317734291  SOLV      4882            0.0000000000
     14759      4893  TIP3      H1             28.7445868859      -27.6427186367       10.0059772986  SOLV      4882            0.0000000000
     14760      4893  TIP3      H2             29.1299339795      -27.0140361543        8.6909078135  SOLV      4882            0.0000000000
     14761      4894  TIP3      OH2            27.9544685988      -28.9320964977        4.4220366813  SOLV      4883            0.0000000000
     14762      4894  TIP3      H1             27.0387578092      -29.2668695568        4.4984522674  SOLV      4883            0.0000000000
     14763      4894  TIP3      H2             28.1810094506      -29.2357334362        3.5090463225  SOLV      4883            0.0000000000
     14764      4895  TIP3      OH2            32.8283275889      -28.3731461939        1.2663594516  SOLV      4884            0.0000000000
     14765      4895  TIP3      H1             32.4117392207      -27.5561461428        0.9355010352  SOLV      4884            0.0000000000
     14766      4895  TIP3      H2             33.7698495799      -28.1503534543        1.2435452884  SOLV      4884            0.0000000000
     14767      4896  TIP3      OH2            34.7144745791      -25.2729988173       12.2008877320  SOLV      4885            0.0000000000
     14768      4896  TIP3      H1             34.3932891583      -25.8979479606       12.8965021368  SOLV      4885            0.0000000000
     14769      4896  TIP3      H2             35.3996614085      -24.7838960013       12.6730155648  SOLV      4885            0.0000000000
     14770      4897  TIP3      OH2            27.4344195136      -27.4384083936       11.2007826368  SOLV      4886            0.0000000000
     14771      4897  TIP3      H1             27.7926636139      -26.8461234683       11.8775357453  SOLV      4886            0.0000000000
     14772      4897  TIP3      H2             27.2591815906      -28.2540832996       11.7259313385  SOLV      4886            0.0000000000
     14773      4898  TIP3      OH2            27.5828506690      -32.6916893228       -1.1325069225  SOLV      4887            0.0000000000
     14774      4898  TIP3      H1             27.3775033961      -32.3092378401       -0.2662451864  SOLV      4887            0.0000000000
     14775      4898  TIP3      H2             27.0655170024      -32.0905346154       -1.7035001727  SOLV      4887            0.0000000000
     14776      4899  TIP3      OH2            23.3199296189      -32.1601986832        2.5228759458  SOLV      4888            0.0000000000
     14777      4899  TIP3      H1             23.5301591454      -31.7226412720        1.6706762121  SOLV      4888            0.0000000000
     14778      4899  TIP3      H2             22.5192356660      -31.6732934292        2.7694475755  SOLV      4888            0.0000000000
     14779      4900  TIP3      OH2            34.2222186553      -25.3975891037        8.0650210459  SOLV      4889            0.0000000000
     14780      4900  TIP3      H1             35.1093043195      -25.5080313760        7.6825564922  SOLV      4889            0.0000000000
     14781      4900  TIP3      H2             34.2277818924      -26.0502493906        8.7940581198  SOLV      4889            0.0000000000
     14782      4901  TIP3      OH2            30.9976402411      -30.5231952979        4.7608105555  SOLV      4890            0.0000000000
     14783      4901  TIP3      H1             30.3986895051      -30.3768704278        5.5141750146  SOLV      4890            0.0000000000
     14784      4901  TIP3      H2             31.8768730694      -30.3696417251        5.1708256791  SOLV      4890            0.0000000000
     14785      4902  TIP3      OH2            25.5649480502      -30.3223069889        4.9858757219  SOLV      4891            0.0000000000
     14786      4902  TIP3      H1             24.6390801742      -30.1313762045        4.7053286174  SOLV      4891            0.0000000000
     14787      4902  TIP3      H2             25.5308016111      -31.2883179560        5.1013980322  SOLV      4891            0.0000000000
     14788      4903  TIP3      OH2            28.4208917011      -29.9586784982        1.9807907100  SOLV      4892            0.0000000000
     14789      4903  TIP3      H1             29.3422613893      -30.2328869412        1.7861631828  SOLV      4892            0.0000000000
     14790      4903  TIP3      H2             27.9674553524      -30.0337714547        1.1187668437  SOLV      4892            0.0000000000
     14791      4904  TIP3      OH2            26.8226082485      -29.8934396640       -0.3061716872  SOLV      4893            0.0000000000
     14792      4904  TIP3      H1             26.0575861626      -30.1721792260       -0.8417532436  SOLV      4893            0.0000000000
     14793      4904  TIP3      H2             27.3680618438      -29.4665743601       -0.9991604531  SOLV      4893            0.0000000000
     14794      4905  TIP3      OH2            27.5115140085      -22.0065924816       13.3817419732  SOLV      4894            0.0000000000
     14795      4905  TIP3      H1             28.3252949577      -21.7270764674       13.8472580474  SOLV      4894            0.0000000000
     14796      4905  TIP3      H2             26.8774514092      -22.0111606433       14.1243447517  SOLV      4894            0.0000000000
     14797      4906  TIP3      OH2            32.1018495730      -27.7531778203        5.8938095350  SOLV      4895            0.0000000000
     14798      4906  TIP3      H1             32.7960302188      -28.2691691794        5.4609813477  SOLV      4895            0.0000000000
     14799      4906  TIP3      H2             32.2714023953      -27.9567262674        6.8219335283  SOLV      4895            0.0000000000
     14800      4907  TIP3      OH2            31.8785543354      -28.8412782615        9.3431150838  SOLV      4896            0.0000000000
     14801      4907  TIP3      H1             31.0234128241      -28.3692570306        9.2626953326  SOLV      4896            0.0000000000
     14802      4907  TIP3      H2             32.4965767044      -28.1151694206        9.5583210235  SOLV      4896            0.0000000000
     14803      4908  TIP3      OH2            29.2270511702      -24.6790725701       -0.1904417891  SOLV      4897            0.0000000000
     14804      4908  TIP3      H1             28.4921085234      -25.3177933919       -0.3128652878  SOLV      4897            0.0000000000
     14805      4908  TIP3      H2             29.0084231525      -24.3142680953        0.7042636078  SOLV      4897            0.0000000000
     14806      4909  TIP3      OH2            33.3149363733      -21.3984586925        9.7789242125  SOLV      4898            0.0000000000
     14807      4909  TIP3      H1             33.5526969464      -21.5967596741       10.6915663488  SOLV      4898            0.0000000000
     14808      4909  TIP3      H2             32.8754931977      -20.5320060269        9.8463412685  SOLV      4898            0.0000000000
     14809      4910  TIP3      OH2            26.1921684780      -24.4126342604        6.4930279405  SOLV      4899            0.0000000000
     14810      4910  TIP3      H1             26.5849857917      -24.6763577933        5.6344968697  SOLV      4899            0.0000000000
     14811      4910  TIP3      H2             26.7487611472      -24.9152167726        7.1101595848  SOLV      4899            0.0000000000
     14812      4911  TIP3      OH2            30.7100161576      -23.1644823818       -1.8983468590  SOLV      4900            0.0000000000
     14813      4911  TIP3      H1             30.2246102915      -22.3064866994       -1.9273345363  SOLV      4900            0.0000000000
     14814      4911  TIP3      H2             30.1228932381      -23.6895839463       -1.3123411031  SOLV      4900            0.0000000000
     14815      4912  TIP3      OH2            25.0338544958      -25.1285226624       12.7064471325  SOLV      4901            0.0000000000
     14816      4912  TIP3      H1             25.2878409391      -25.2823803600       13.6376011014  SOLV      4901            0.0000000000
     14817      4912  TIP3      H2             24.4173678439      -25.8611305220       12.5453930304  SOLV      4901            0.0000000000
     14818      4913  TIP3      OH2            32.2780355339      -24.0068699110       12.8322553023  SOLV      4902            0.0000000000
     14819      4913  TIP3      H1             31.6533077342      -24.6282915499       12.4232670949  SOLV      4902            0.0000000000
     14820      4913  TIP3      H2             33.1141213491      -24.2843005933       12.4078080282  SOLV      4902            0.0000000000
     14821      4914  TIP3      OH2            34.8106998891      -18.5421699540        8.6506345550  SOLV      4903            0.0000000000
     14822      4914  TIP3      H1             33.8912968037      -18.8531357366        8.7101747677  SOLV      4903            0.0000000000
     14823      4914  TIP3      H2             34.9834192178      -18.3108662842        9.5826660563  SOLV      4903            0.0000000000
     14824      4915  TIP3      OH2            27.2517075121      -21.3102669436        2.7897939281  SOLV      4904            0.0000000000
     14825      4915  TIP3      H1             27.1981925541      -20.5035473424        2.2433655082  SOLV      4904            0.0000000000
     14826      4915  TIP3      H2             26.3218979368      -21.5229302295        2.9184712235  SOLV      4904            0.0000000000
     14827      4916  TIP3      OH2            22.8602663173      -28.2622748420       -0.1599400622  SOLV      4905            0.0000000000
     14828      4916  TIP3      H1             23.3101889245      -27.4199156795        0.0695534832  SOLV      4905            0.0000000000
     14829      4916  TIP3      H2             22.0987207967      -28.2403367218        0.4594750490  SOLV      4905            0.0000000000
     14830      4917  TIP3      OH2            28.4849359824      -23.7179258691        2.1867822786  SOLV      4906            0.0000000000
     14831      4917  TIP3      H1             28.1794411357      -22.8194405746        2.4213101831  SOLV      4906            0.0000000000
     14832      4917  TIP3      H2             28.2056814148      -24.2312777899        2.9684379256  SOLV      4906            0.0000000000
     14833      4918  TIP3      OH2            29.9321246598      -17.9301971937        7.4577096977  SOLV      4907            0.0000000000
     14834      4918  TIP3      H1             30.3616321875      -17.2025202567        6.9610553144  SOLV      4907            0.0000000000
     14835      4918  TIP3      H2             30.7002876991      -18.3354277410        7.8920013790  SOLV      4907            0.0000000000
     14836      4919  TIP3      OH2            26.3820733373      -18.9266026601        1.2923455797  SOLV      4908            0.0000000000
     14837      4919  TIP3      H1             25.5429437810      -18.8158402283        1.7770247971  SOLV      4908            0.0000000000
     14838      4919  TIP3      H2             26.7358641883      -18.0083703935        1.3290063605  SOLV      4908            0.0000000000
     14839      4920  TIP3      OH2            33.7378546014      -21.4874143190        7.0876266698  SOLV      4909            0.0000000000
     14840      4920  TIP3      H1             33.6104662394      -21.5152743116        8.0632776641  SOLV      4909            0.0000000000
     14841      4920  TIP3      H2             34.4198462920      -22.1588290132        6.9699144141  SOLV      4909            0.0000000000
     14842      4921  TIP3      OH2            35.5016992370      -16.0149473610        7.9582746813  SOLV      4910            0.0000000000
     14843      4921  TIP3      H1             35.4182906911      -16.9255848621        8.3140051710  SOLV      4910            0.0000000000
     14844      4921  TIP3      H2             34.8977751111      -16.1176788575        7.1865179698  SOLV      4910            0.0000000000
     14845      4922  TIP3      OH2            27.0540308985      -29.6295969828       12.8243990364  SOLV      4911            0.0000000000
     14846      4922  TIP3      H1             26.3240039534      -30.2280499386       12.5851675649  SOLV      4911            0.0000000000
     14847      4922  TIP3      H2             27.5454674424      -30.1884224535       13.4491577418  SOLV      4911            0.0000000000
     14848      4923  TIP3      OH2            24.2588234192      -19.3209280476        9.0585627667  SOLV      4912            0.0000000000
     14849      4923  TIP3      H1             24.8441684811      -20.0000823766        9.4369707204  SOLV      4912            0.0000000000
     14850      4923  TIP3      H2             24.5498908478      -18.5361826651        9.5443536448  SOLV      4912            0.0000000000
     14851      4924  TIP3      OH2            27.1712661092      -22.8258243509       -4.0810660943  SOLV      4913            0.0000000000
     14852      4924  TIP3      H1             27.3203420621      -23.7493674585       -4.3527479472  SOLV      4913            0.0000000000
     14853      4924  TIP3      H2             26.9517096917      -22.9347729000       -3.1361128232  SOLV      4913            0.0000000000
     14854      4925  TIP3      OH2            26.5918006592      -22.7846595567       -1.3438754896  SOLV      4914            0.0000000000
     14855      4925  TIP3      H1             27.3638243445      -23.0512041645       -0.8250838768  SOLV      4914            0.0000000000
     14856      4925  TIP3      H2             26.6421130020      -21.8035537252       -1.2836340084  SOLV      4914            0.0000000000
     14857      4926  TIP3      OH2            23.9462076530      -25.8780064550        0.6688499455  SOLV      4915            0.0000000000
     14858      4926  TIP3      H1             23.2868233038      -25.4181378321        1.2280378448  SOLV      4915            0.0000000000
     14859      4926  TIP3      H2             24.1044424251      -25.1977694597       -0.0142795951  SOLV      4915            0.0000000000
     14860      4927  TIP3      OH2            29.3102790713      -20.8475631913       -1.8888511973  SOLV      4916            0.0000000000
     14861      4927  TIP3      H1             28.4423391905      -20.5891150009       -1.5218729256  SOLV      4916            0.0000000000
     14862      4927  TIP3      H2             29.4198773002      -20.1636908982       -2.5661264380  SOLV      4916            0.0000000000
     14863      4928  TIP3      OH2            31.1526687050      -30.4823921326        2.0274790954  SOLV      4917            0.0000000000
     14864      4928  TIP3      H1             31.8035840567      -29.7834646884        1.8033484691  SOLV      4917            0.0000000000
     14865      4928  TIP3      H2             31.1440892435      -30.4328589220        3.0070363697  SOLV      4917            0.0000000000
     14866      4929  TIP3      OH2            33.9472128998      -27.1043817638       10.2537051895  SOLV      4918            0.0000000000
     14867      4929  TIP3      H1             34.1395780750      -26.4167143760       10.9273476742  SOLV      4918            0.0000000000
     14868      4929  TIP3      H2             34.4548941733      -27.8569548643       10.5873102786  SOLV      4918            0.0000000000
     14869      4930  TIP3      OH2            26.7790413260      -20.0672885711       -1.1859964839  SOLV      4919            0.0000000000
     14870      4930  TIP3      H1             26.4896878290      -19.3661913022       -1.8135492661  SOLV      4919            0.0000000000
     14871      4930  TIP3      H2             26.6124406004      -19.6300090390       -0.3219323707  SOLV      4919            0.0000000000
     14872      4931  TIP3      OH2            23.9422638694      -23.8265971239       -1.3073794426  SOLV      4920            0.0000000000
     14873      4931  TIP3      H1             24.6908009929      -23.2027784207       -1.2196953934  SOLV      4920            0.0000000000
     14874      4931  TIP3      H2             24.3410488491      -24.4313902866       -1.9725237664  SOLV      4920            0.0000000000
     14875      4932  TIP3      OH2            23.3222438803      -30.9320924762        0.0826811200  SOLV      4921            0.0000000000
     14876      4932  TIP3      H1             23.3277316548      -29.9536997817        0.0488838791  SOLV      4921            0.0000000000
     14877      4932  TIP3      H2             22.6760145072      -31.1437070440       -0.6021941411  SOLV      4921            0.0000000000
     14878      4933  TIP3      OH2            22.6528899209      -21.6510784379        2.5053425017  SOLV      4922            0.0000000000
     14879      4933  TIP3      H1             22.0108465680      -21.3708371364        3.1718435443  SOLV      4922            0.0000000000
     14880      4933  TIP3      H2             22.3189612109      -21.1805991486        1.7074631239  SOLV      4922            0.0000000000
     14881      4934  TIP3      OH2            24.2429138566      -16.1321061502       13.3092125378  SOLV      4923            0.0000000000
     14882      4934  TIP3      H1             25.1068093371      -16.0792732520       13.7815028981  SOLV      4923            0.0000000000
     14883      4934  TIP3      H2             24.1155693596      -17.0937803263       13.2844070646  SOLV      4923            0.0000000000
     14884      4935  TIP3      OH2            28.9418121058      -16.6422493600       13.7652232103  SOLV      4924            0.0000000000
     14885      4935  TIP3      H1             29.9025374955      -16.7453863877       13.8088408783  SOLV      4924            0.0000000000
     14886      4935  TIP3      H2             28.7202821813      -17.2582283679       13.0374548288  SOLV      4924            0.0000000000
     14887      4936  TIP3      OH2            28.8447116414      -20.8053659697       -4.9914571193  SOLV      4925            0.0000000000
     14888      4936  TIP3      H1             28.3441858408      -21.5787269421       -4.6412752740  SOLV      4925            0.0000000000
     14889      4936  TIP3      H2             29.5973489708      -21.2460233853       -5.4356895882  SOLV      4925            0.0000000000
     14890      4937  TIP3      OH2            35.3398271881      -17.5296413354       11.1626810521  SOLV      4926            0.0000000000
     14891      4937  TIP3      H1             35.2001440030      -18.2395872883       11.8363723016  SOLV      4926            0.0000000000
     14892      4937  TIP3      H2             36.2953325541      -17.5690353246       11.0326501466  SOLV      4926            0.0000000000
     14893      4938  TIP3      OH2            25.4877843619      -22.1385598894       15.2994101735  SOLV      4927            0.0000000000
     14894      4938  TIP3      H1             25.6410898994      -23.0955797388       15.3941438780  SOLV      4927            0.0000000000
     14895      4938  TIP3      H2             24.6329615559      -22.1189479901       14.8180429619  SOLV      4927            0.0000000000
     14896      4939  TIP3      OH2            25.2773385099      -25.6956764928       -2.7244606290  SOLV      4928            0.0000000000
     14897      4939  TIP3      H1             25.8651540495      -25.9761773311       -1.9985547202  SOLV      4928            0.0000000000
     14898      4939  TIP3      H2             25.9345676868      -25.6223181532       -3.4530019693  SOLV      4928            0.0000000000
     14899      4940  TIP3      OH2            31.5536429630      -21.2543258322       13.0542696626  SOLV      4929            0.0000000000
     14900      4940  TIP3      H1             31.1562329056      -21.0377598079       12.1855222731  SOLV      4929            0.0000000000
     14901      4940  TIP3      H2             31.8585377255      -22.1779725328       12.9303276467  SOLV      4929            0.0000000000
     14902      4941  TIP3      OH2            30.3528020100      -23.6924865912       -4.6247454129  SOLV      4930            0.0000000000
     14903      4941  TIP3      H1             30.5320452951      -23.5459985032       -3.6748110617  SOLV      4930            0.0000000000
     14904      4941  TIP3      H2             30.2922468795      -24.6697706521       -4.6514785270  SOLV      4930            0.0000000000
     14905      4942  TIP3      OH2            26.7496248587      -24.8299993671       15.1177718188  SOLV      4931            0.0000000000
     14906      4942  TIP3      H1             27.5951077563      -25.1277989812       14.7536166697  SOLV      4931            0.0000000000
     14907      4942  TIP3      H2             27.0275282748      -24.4629179036       15.9843911803  SOLV      4931            0.0000000000
     14908      4943  TIP3      OH2            27.2739570227      -26.5934894468       -0.5599331314  SOLV      4932            0.0000000000
     14909      4943  TIP3      H1             27.0848930663      -26.9963510867        0.3035590500  SOLV      4932            0.0000000000
     14910      4943  TIP3      H2             27.6758523070      -27.3380188820       -1.0554284902  SOLV      4932            0.0000000000
     14911      4944  TIP3      OH2            30.1094011424      -25.9328139861       11.7409990423  SOLV      4933            0.0000000000
     14912      4944  TIP3      H1             29.3216715427      -25.3477660094       11.7146755060  SOLV      4933            0.0000000000
     14913      4944  TIP3      H2             30.6232098271      -25.6142437039       10.9611189116  SOLV      4933            0.0000000000
     14914      4945  TIP3      OH2            28.3350466073      -28.5748101441       -2.1843479372  SOLV      4934            0.0000000000
     14915      4945  TIP3      H1             28.0460471720      -28.5749117900       -3.1226923239  SOLV      4934            0.0000000000
     14916      4945  TIP3      H2             29.3021405993      -28.5264847417       -2.3023008594  SOLV      4934            0.0000000000
     14917      4946  TIP3      OH2            35.1628825680      -21.9950814294       13.1346100819  SOLV      4935            0.0000000000
     14918      4946  TIP3      H1             36.0928888920      -21.9836262126       12.8853379035  SOLV      4935            0.0000000000
     14919      4946  TIP3      H2             35.1497385460      -22.6481386339       13.8567114492  SOLV      4935            0.0000000000
     14920      4947  TIP3      OH2            31.1340631758      -28.0144393750       13.1202597068  SOLV      4936            0.0000000000
     14921      4947  TIP3      H1             31.1961984953      -28.8196522230       12.5882786010  SOLV      4936            0.0000000000
     14922      4947  TIP3      H2             30.7616840711      -27.3672956648       12.4767424088  SOLV      4936            0.0000000000
     14923      4948  TIP3      OH2            31.6072636244      -24.8791850870        9.7860515159  SOLV      4937            0.0000000000
     14924      4948  TIP3      H1             32.4242245927      -24.8647963914        9.2631099458  SOLV      4937            0.0000000000
     14925      4948  TIP3      H2             31.0478932975      -24.2326820849        9.3065032706  SOLV      4937            0.0000000000
     14926      4949  TIP3      OH2            29.8975030079      -26.7060209679       15.2626920281  SOLV      4938            0.0000000000
     14927      4949  TIP3      H1             29.1818752068      -27.3601151641       15.3700929350  SOLV      4938            0.0000000000
     14928      4949  TIP3      H2             30.3213263864      -27.0292572511       14.4424281979  SOLV      4938            0.0000000000
     14929      4950  TIP3      OH2            33.6683580555      -27.0780590257       13.8551734285  SOLV      4939            0.0000000000
     14930      4950  TIP3      H1             34.0303581774      -27.8262358648       14.3824486612  SOLV      4939            0.0000000000
     14931      4950  TIP3      H2             32.7462653920      -27.3763679018       13.7267208524  SOLV      4939            0.0000000000
     14932      4951  TIP3      OH2            28.2888475392      -28.8599209407       15.8708084315  SOLV      4940            0.0000000000
     14933      4951  TIP3      H1             28.6378169431      -29.6662819408       15.4477818323  SOLV      4940            0.0000000000
     14934      4951  TIP3      H2             28.8465860277      -28.8043371292       16.6602335235  SOLV      4940            0.0000000000
     14935      4952  TIP3      OH2            26.4644221725      -18.0508982193       -3.0558616071  SOLV      4941            0.0000000000
     14936      4952  TIP3      H1             27.4142722145      -18.1376566397       -3.2636958979  SOLV      4941            0.0000000000
     14937      4952  TIP3      H2             26.1846757631      -17.5183086462       -3.8268137977  SOLV      4941            0.0000000000
     14938      4953  TIP3      OH2            21.2478507740      -24.2136697930       -0.9258704936  SOLV      4942            0.0000000000
     14939      4953  TIP3      H1             22.1924712191      -24.0039632913       -1.1036765233  SOLV      4942            0.0000000000
     14940      4953  TIP3      H2             21.1718237118      -25.0996339689       -1.3419225877  SOLV      4942            0.0000000000
     14941      4954  TIP3      OH2            20.2555697913      -18.2624842837        3.2670357687  SOLV      4943            0.0000000000
     14942      4954  TIP3      H1             20.2200028503      -18.9340090754        2.5697939553  SOLV      4943            0.0000000000
     14943      4954  TIP3      H2             20.7899508314      -18.7175231220        3.9562600755  SOLV      4943            0.0000000000
     14944      4955  TIP3      OH2            21.7070115678      -19.6494708380        5.1392721129  SOLV      4944            0.0000000000
     14945      4955  TIP3      H1             21.7058086376      -20.3456673499        5.8215932460  SOLV      4944            0.0000000000
     14946      4955  TIP3      H2             22.2667629116      -18.9901700276        5.5929366080  SOLV      4944            0.0000000000
     14947      4956  TIP3      OH2            23.5786784721      -25.4668021427        8.8029861356  SOLV      4945            0.0000000000
     14948      4956  TIP3      H1             23.5753409541      -25.8451194146        7.8989125677  SOLV      4945            0.0000000000
     14949      4956  TIP3      H2             24.5497031043      -25.4589509681        8.9874953502  SOLV      4945            0.0000000000
     14950      4957  TIP3      OH2            25.5631670117      -28.7331212620       15.4929507728  SOLV      4946            0.0000000000
     14951      4957  TIP3      H1             26.5442021590      -28.6866431942       15.5079822970  SOLV      4946            0.0000000000
     14952      4957  TIP3      H2             25.4191248529      -29.6471653123       15.7770086609  SOLV      4946            0.0000000000
     14953      4958  TIP3      OH2            23.4040911629      -29.0746299902        9.5280389717  SOLV      4947            0.0000000000
     14954      4958  TIP3      H1             23.9342925221      -29.0018916491        8.7051263942  SOLV      4947            0.0000000000
     14955      4958  TIP3      H2             23.7779903942      -28.3596493470       10.0596086538  SOLV      4947            0.0000000000
     14956      4959  TIP3      OH2            25.8546991130      -18.8380794405       13.4424119744  SOLV      4948            0.0000000000
     14957      4959  TIP3      H1             24.9192340174      -19.0959749390       13.3312719467  SOLV      4948            0.0000000000
     14958      4959  TIP3      H2             26.0081396423      -19.0212584233       14.3763076018  SOLV      4948            0.0000000000
     14959      4960  TIP3      OH2            27.6647547458      -18.5033180581        8.9537090188  SOLV      4949            0.0000000000
     14960      4960  TIP3      H1             27.2197557207      -17.7212936540        8.5623853512  SOLV      4949            0.0000000000
     14961      4960  TIP3      H2             28.5364495910      -18.3912303169        8.5207017202  SOLV      4949            0.0000000000
     14962      4961  TIP3      OH2            31.9889833968      -16.1638440584       10.4133589214  SOLV      4950            0.0000000000
     14963      4961  TIP3      H1             32.4313593487      -16.1564730349       11.2880241371  SOLV      4950            0.0000000000
     14964      4961  TIP3      H2             32.5624828299      -15.5374309180        9.9193637328  SOLV      4950            0.0000000000
     14965      4962  TIP3      OH2            33.6335294870      -14.3830286972        9.1448318567  SOLV      4951            0.0000000000
     14966      4962  TIP3      H1             34.3348164235      -14.9394357103        8.7386841009  SOLV      4951            0.0000000000
     14967      4962  TIP3      H2             34.1978338031      -13.7761945717        9.6649346800  SOLV      4951            0.0000000000
     14968      4963  TIP3      OH2            24.3786773366      -16.0122243535        9.2491110213  SOLV      4952            0.0000000000
     14969      4963  TIP3      H1             23.4690463741      -15.6949991530        9.0506463555  SOLV      4952            0.0000000000
     14970      4963  TIP3      H2             24.6011450444      -15.4381131766        9.9983392980  SOLV      4952            0.0000000000
     14971      4964  TIP3      OH2            26.7490393411      -16.1917517203        7.8138798360  SOLV      4953            0.0000000000
     14972      4964  TIP3      H1             25.8664640636      -16.0759462290        8.2285061046  SOLV      4953            0.0000000000
     14973      4964  TIP3      H2             26.5857839146      -15.8648564730        6.9064521645  SOLV      4953            0.0000000000
     14974      4965  TIP3      OH2            30.9410799074      -15.9120118316        5.7550962309  SOLV      4954            0.0000000000
     14975      4965  TIP3      H1             30.2322586402      -15.6936133890        5.1241777489  SOLV      4954            0.0000000000
     14976      4965  TIP3      H2             31.0889939225      -15.0488323290        6.1996843751  SOLV      4954            0.0000000000
     14977      4966  TIP3      OH2            33.6212690321      -16.5045804984        6.0940948097  SOLV      4955            0.0000000000
     14978      4966  TIP3      H1             32.6757120740      -16.2965207431        5.9672108233  SOLV      4955            0.0000000000
     14979      4966  TIP3      H2             34.0707113501      -15.7912959235        5.5956785009  SOLV      4955            0.0000000000
     14980      4967  TIP3      OH2            35.4778435494      -14.6560108354        5.1528665484  SOLV      4956            0.0000000000
     14981      4967  TIP3      H1             35.4173587655      -13.6838910832        5.0391115243  SOLV      4956            0.0000000000
     14982      4967  TIP3      H2             35.8039067115      -14.9237471304        4.2853765184  SOLV      4956            0.0000000000
     14983      4968  TIP3      OH2            23.4921504841      -18.0894283208        6.6441016196  SOLV      4957            0.0000000000
     14984      4968  TIP3      H1             23.7721055495      -18.3468738968        7.5483121711  SOLV      4957            0.0000000000
     14985      4968  TIP3      H2             24.2293718391      -18.5018761180        6.1381714962  SOLV      4957            0.0000000000
     14986      4969  TIP3      OH2            25.4853948778      -19.3236645522        5.2622412936  SOLV      4958            0.0000000000
     14987      4969  TIP3      H1             25.6385839890      -20.1669407144        5.7522391109  SOLV      4958            0.0000000000
     14988      4969  TIP3      H2             26.4008032108      -18.9682785327        5.2296290277  SOLV      4958            0.0000000000
     14989      4970  TIP3      OH2            28.1482077300      -18.4343519694        5.3290662859  SOLV      4959            0.0000000000
     14990      4970  TIP3      H1             28.4559867052      -19.3570158852        5.2349628275  SOLV      4959            0.0000000000
     14991      4970  TIP3      H2             28.6585464027      -18.1815732999        6.1237092237  SOLV      4959            0.0000000000
     14992      4971  TIP3      OH2            21.2726027643      -20.1412189688        0.7270499685  SOLV      4960            0.0000000000
     14993      4971  TIP3      H1             20.4897779039      -20.5432670782        0.3049676043  SOLV      4960            0.0000000000
     14994      4971  TIP3      H2             21.3119757399      -19.3057732474        0.2179189817  SOLV      4960            0.0000000000
     14995      4972  TIP3      OH2            29.1208810649      -18.4774749553       -3.6244703436  SOLV      4961            0.0000000000
     14996      4972  TIP3      H1             29.9912205995      -18.2430940560       -4.0026091729  SOLV      4961            0.0000000000
     14997      4972  TIP3      H2             28.8935932870      -19.2246344293       -4.2254699312  SOLV      4961            0.0000000000
     14998      4973  TIP3      OH2            22.1642139268      -20.1505273814       -3.0695875802  SOLV      4962            0.0000000000
     14999      4973  TIP3      H1             22.3555901208      -19.8209254677       -2.1843354005  SOLV      4962            0.0000000000
     15000      4973  TIP3      H2             23.0146330012      -20.5976043050       -3.3023371601  SOLV      4962            0.0000000000
     15001      4974  TIP3      OH2           -24.2801315361      -14.2980328132       13.7842219878  SOLV      4963            0.0000000000
     15002      4974  TIP3      H1            -24.5441500214      -13.3780467156       13.5566937146  SOLV      4963            0.0000000000
     15003      4974  TIP3      H2            -25.0357216853      -14.7754890097       13.4030984735  SOLV      4963            0.0000000000
     15004      4975  TIP3      OH2           -24.2425244709      -14.2035898270       17.5847613123  SOLV      4964            0.0000000000
     15005      4975  TIP3      H1            -23.8944667652      -14.4308537390       18.4669683373  SOLV      4964            0.0000000000
     15006      4975  TIP3      H2            -24.6521572055      -15.0335979995       17.3002230547  SOLV      4964            0.0000000000
     15007      4976  TIP3      OH2           -31.1795867737      -15.2135728088       21.2503433173  SOLV      4965            0.0000000000
     15008      4976  TIP3      H1            -30.9025887923      -15.9543454357       21.8182602370  SOLV      4965            0.0000000000
     15009      4976  TIP3      H2            -30.3264574491      -14.8348243334       20.9868853402  SOLV      4965            0.0000000000
     15010      4977  TIP3      OH2           -21.3403699214      -11.5676500436       14.6204602313  SOLV      4966            0.0000000000
     15011      4977  TIP3      H1            -22.0542312085      -11.8472920085       15.2000275342  SOLV      4966            0.0000000000
     15012      4977  TIP3      H2            -21.5959905586      -10.6625284502       14.4023738495  SOLV      4966            0.0000000000
     15013      4978  TIP3      OH2           -31.5015837573      -11.1535546317       18.4453999156  SOLV      4967            0.0000000000
     15014      4978  TIP3      H1            -31.5759699726      -12.1310125226       18.4534143070  SOLV      4967            0.0000000000
     15015      4978  TIP3      H2            -30.5401386052      -11.0548375363       18.2962440699  SOLV      4967            0.0000000000
     15016      4979  TIP3      OH2           -34.1912173501      -18.7224913319       16.2663017355  SOLV      4968            0.0000000000
     15017      4979  TIP3      H1            -34.6018914093      -18.0417883020       16.8220985213  SOLV      4968            0.0000000000
     15018      4979  TIP3      H2            -34.9168773796      -19.3581407525       16.1117505373  SOLV      4968            0.0000000000
     15019      4980  TIP3      OH2           -33.8945324201      -16.2766125872       18.0136928628  SOLV      4969            0.0000000000
     15020      4980  TIP3      H1            -33.3315959797      -17.0128421799       18.3346682840  SOLV      4969            0.0000000000
     15021      4980  TIP3      H2            -33.2949710252      -15.8041582929       17.4229387147  SOLV      4969            0.0000000000
     15022      4981  TIP3      OH2           -25.2275632961       -6.6904387711       14.4774630064  SOLV      4970            0.0000000000
     15023      4981  TIP3      H1            -25.1371155470       -7.3840210152       13.7765506528  SOLV      4970            0.0000000000
     15024      4981  TIP3      H2            -25.0570667181       -7.2422681734       15.2486579868  SOLV      4970            0.0000000000
     15025      4982  TIP3      OH2           -26.2896879217      -11.9575097608       18.0808869143  SOLV      4971            0.0000000000
     15026      4982  TIP3      H1            -25.8485818775      -12.6733415049       17.5927552394  SOLV      4971            0.0000000000
     15027      4982  TIP3      H2            -25.4818863933      -11.4672879033       18.3548509261  SOLV      4971            0.0000000000
     15028      4983  TIP3      OH2           -16.0689769895      -18.7657287268       18.0478766507  SOLV      4972            0.0000000000
     15029      4983  TIP3      H1            -15.7897218526      -17.9237427644       18.4612898527  SOLV      4972            0.0000000000
     15030      4983  TIP3      H2            -15.9078761959      -18.5748580787       17.1076454234  SOLV      4972            0.0000000000
     15031      4984  TIP3      OH2           -22.1608414614      -16.9905398956       18.3519835818  SOLV      4973            0.0000000000
     15032      4984  TIP3      H1            -21.7112589449      -17.8353510388       18.5374540963  SOLV      4973            0.0000000000
     15033      4984  TIP3      H2            -22.4726669973      -17.1413320739       17.4388104450  SOLV      4973            0.0000000000
     15034      4985  TIP3      OH2           -28.7012947054      -20.3704423304       18.0381964549  SOLV      4974            0.0000000000
     15035      4985  TIP3      H1            -28.8988944438      -19.6551990230       17.3957165703  SOLV      4974            0.0000000000
     15036      4985  TIP3      H2            -29.1491483333      -21.1187963143       17.5776504105  SOLV      4974            0.0000000000
     15037      4986  TIP3      OH2           -21.7725304314      -19.4154149480       14.2121730655  SOLV      4975            0.0000000000
     15038      4986  TIP3      H1            -21.0616103211      -19.5570073659       14.8788633346  SOLV      4975            0.0000000000
     15039      4986  TIP3      H2            -21.2413927330      -19.0681344603       13.4701127193  SOLV      4975            0.0000000000
     15040      4987  TIP3      OH2           -32.3362903462      -18.2800688362       19.0058943680  SOLV      4976            0.0000000000
     15041      4987  TIP3      H1            -31.5237309972      -18.4307833596       19.5190185880  SOLV      4976            0.0000000000
     15042      4987  TIP3      H2            -32.1511545817      -18.8485972610       18.2245670159  SOLV      4976            0.0000000000
     15043      4988  TIP3      OH2           -28.0273482875      -16.3799560863       17.0985165879  SOLV      4977            0.0000000000
     15044      4988  TIP3      H1            -27.0732416484      -16.6011720545       17.1637605012  SOLV      4977            0.0000000000
     15045      4988  TIP3      H2            -28.3949084416      -17.2092053716       16.7226367252  SOLV      4977            0.0000000000
     15046      4989  TIP3      OH2           -15.3639418562      -16.6620028932       19.7479608586  SOLV      4978            0.0000000000
     15047      4989  TIP3      H1            -16.1982834895      -16.1932013147       19.5319986961  SOLV      4978            0.0000000000
     15048      4989  TIP3      H2            -15.1416540788      -16.2518504312       20.6007623177  SOLV      4978            0.0000000000
     15049      4990  TIP3      OH2           -28.8061855462      -20.4153607206       22.4517426512  SOLV      4979            0.0000000000
     15050      4990  TIP3      H1            -29.2776115423      -19.9774531520       21.7136320185  SOLV      4979            0.0000000000
     15051      4990  TIP3      H2            -29.3036502487      -20.0635791960       23.2196932035  SOLV      4979            0.0000000000
     15052      4991  TIP3      OH2           -25.2651423714      -12.0769561221       12.5168815672  SOLV      4980            0.0000000000
     15053      4991  TIP3      H1            -25.5760645570      -11.8732678563       11.6273045300  SOLV      4980            0.0000000000
     15054      4991  TIP3      H2            -25.0367887863      -11.1579144335       12.7943994674  SOLV      4980            0.0000000000
     15055      4992  TIP3      OH2           -27.7318864729      -12.7488390277       20.2728939636  SOLV      4981            0.0000000000
     15056      4992  TIP3      H1            -28.3013341601      -12.0258510679       20.6138258273  SOLV      4981            0.0000000000
     15057      4992  TIP3      H2            -27.2757846819      -12.3065121952       19.5223054480  SOLV      4981            0.0000000000
     15058      4993  TIP3      OH2           -19.7334307209      -19.3757077401       16.0176009660  SOLV      4982            0.0000000000
     15059      4993  TIP3      H1            -19.9621568718      -19.7490722169       16.8795122755  SOLV      4982            0.0000000000
     15060      4993  TIP3      H2            -19.2412686569      -18.5700709009       16.2729836762  SOLV      4982            0.0000000000
     15061      4994  TIP3      OH2           -29.9853049089      -19.3186006403       20.1968550538  SOLV      4983            0.0000000000
     15062      4994  TIP3      H1            -29.3975545218      -18.5617116452       20.4216453967  SOLV      4983            0.0000000000
     15063      4994  TIP3      H2            -29.4928033879      -19.6953497478       19.4298203661  SOLV      4983            0.0000000000
     15064      4995  TIP3      OH2           -29.4561496043      -10.7635461387       21.3278674838  SOLV      4984            0.0000000000
     15065      4995  TIP3      H1            -29.6602153200       -9.9016786959       20.9107824614  SOLV      4984            0.0000000000
     15066      4995  TIP3      H2            -30.2767195463      -10.8944483565       21.8414606092  SOLV      4984            0.0000000000
     15067      4996  TIP3      OH2           -35.4322000324      -13.9165634877       13.5918201280  SOLV      4985            0.0000000000
     15068      4996  TIP3      H1            -35.8887903092      -13.6354939180       12.7814237807  SOLV      4985            0.0000000000
     15069      4996  TIP3      H2            -35.1830433130      -13.0449825649       13.9782263103  SOLV      4985            0.0000000000
     15070      4997  TIP3      OH2           -21.0516277751       -8.5991288215       16.1421186187  SOLV      4986            0.0000000000
     15071      4997  TIP3      H1            -21.9564496302       -8.8030835543       16.4669756865  SOLV      4986            0.0000000000
     15072      4997  TIP3      H2            -21.2181874355       -7.7773533356       15.6409040690  SOLV      4986            0.0000000000
     15073      4998  TIP3      OH2           -18.1640997952      -19.8077405747       19.6697057568  SOLV      4987            0.0000000000
     15074      4998  TIP3      H1            -19.0328914693      -19.5250072737       19.3379390243  SOLV      4987            0.0000000000
     15075      4998  TIP3      H2            -17.5559130546      -19.4487467034       18.9901716013  SOLV      4987            0.0000000000
     15076      4999  TIP3      OH2           -25.2935018420      -23.2594109929       19.4828491016  SOLV      4988            0.0000000000
     15077      4999  TIP3      H1            -25.4160257618      -24.2059306671       19.7395262168  SOLV      4988            0.0000000000
     15078      4999  TIP3      H2            -26.0635377050      -22.8794891482       19.9520205806  SOLV      4988            0.0000000000
     15079      5000  TIP3      OH2           -18.8537299868       -9.6847065886       19.4874843343  SOLV      4989            0.0000000000
     15080      5000  TIP3      H1            -18.9949807937      -10.4221280806       18.8553966431  SOLV      4989            0.0000000000
     15081      5000  TIP3      H2            -19.0466361741       -8.9054924746       18.9195390945  SOLV      4989            0.0000000000
     15082      5001  TIP3      OH2           -25.9546795083      -15.7318885030       12.0774104355  SOLV      4990            0.0000000000
     15083      5001  TIP3      H1            -26.7218865888      -15.1463120479       11.9022426823  SOLV      4990            0.0000000000
     15084      5001  TIP3      H2            -25.4702291843      -15.6752337558       11.2358294435  SOLV      4990            0.0000000000
     15085      5002  TIP3      OH2           -26.3679623880      -17.8015393627        9.1598024860  SOLV      4991            0.0000000000
     15086      5002  TIP3      H1            -25.7357166631      -17.2747836352        9.6814587006  SOLV      4991            0.0000000000
     15087      5002  TIP3      H2            -25.7550349011      -18.4155863489        8.7047274928  SOLV      4991            0.0000000000
     15088      5003  TIP3      OH2           -16.9087252749      -13.2355993567       17.9698095122  SOLV      4992            0.0000000000
     15089      5003  TIP3      H1            -17.7569955379      -12.7342048015       17.9771248364  SOLV      4992            0.0000000000
     15090      5003  TIP3      H2            -16.5890130814      -12.9926143505       17.0707680049  SOLV      4992            0.0000000000
     15091      5004  TIP3      OH2           -22.4703235982      -14.8801304043       11.7858666876  SOLV      4993            0.0000000000
     15092      5004  TIP3      H1            -23.0090499615      -14.6164263470       12.5668875201  SOLV      4993            0.0000000000
     15093      5004  TIP3      H2            -21.6051233279      -15.0420775842       12.2132150125  SOLV      4993            0.0000000000
     15094      5005  TIP3      OH2           -20.1205757288      -14.5073146696       20.9512013113  SOLV      4994            0.0000000000
     15095      5005  TIP3      H1            -20.1386563683      -13.6595674069       21.4350847996  SOLV      4994            0.0000000000
     15096      5005  TIP3      H2            -20.9556579602      -14.4369283079       20.4472333811  SOLV      4994            0.0000000000
     15097      5006  TIP3      OH2           -30.1493414285      -14.9286228911       15.9888743515  SOLV      4995            0.0000000000
     15098      5006  TIP3      H1            -30.5436639755      -15.4986853094       15.2948182013  SOLV      4995            0.0000000000
     15099      5006  TIP3      H2            -29.3764496005      -15.4565753823       16.2769614012  SOLV      4995            0.0000000000
     15100      5007  TIP3      OH2           -28.8805650005      -10.8594506777       17.4487319565  SOLV      4996            0.0000000000
     15101      5007  TIP3      H1            -29.0183082245      -11.0852339075       16.5145565816  SOLV      4996            0.0000000000
     15102      5007  TIP3      H2            -27.9757733039      -11.1979454245       17.6121487764  SOLV      4996            0.0000000000
     15103      5008  TIP3      OH2           -28.8056831816      -15.1678190974       19.5112466187  SOLV      4997            0.0000000000
     15104      5008  TIP3      H1            -28.4768266592      -15.4417017934       18.6264024632  SOLV      4997            0.0000000000
     15105      5008  TIP3      H2            -28.3492698613      -14.3076075648       19.6464471843  SOLV      4997            0.0000000000
     15106      5009  TIP3      OH2           -23.5036494209       -8.8207997449       17.2791416652  SOLV      4998            0.0000000000
     15107      5009  TIP3      H1            -23.6206765496       -7.9666364571       17.7392263815  SOLV      4998            0.0000000000
     15108      5009  TIP3      H2            -23.7152493223       -9.4810383497       17.9617487609  SOLV      4998            0.0000000000
     15109      5010  TIP3      OH2           -27.3658392710       -9.6244634849       22.7773100991  SOLV      4999            0.0000000000
     15110      5010  TIP3      H1            -28.0002024162       -9.0142848761       23.2102551459  SOLV      4999            0.0000000000
     15111      5010  TIP3      H2            -27.9827875734      -10.1598541804       22.2393334484  SOLV      4999            0.0000000000
     15112      5011  TIP3      OH2           -24.0626166364      -16.2847396976       10.0393953599  SOLV      5000            0.0000000000
     15113      5011  TIP3      H1            -23.4863238146      -15.6533006813       10.5300568077  SOLV      5000            0.0000000000
     15114      5011  TIP3      H2            -23.7956802411      -16.0901466060        9.1081886922  SOLV      5000            0.0000000000
     15115      5012  TIP3      OH2           -29.8075550430      -14.1570019006       23.8856742246  SOLV      5001            0.0000000000
     15116      5012  TIP3      H1            -29.7532033649      -13.2475363902       24.2448072814  SOLV      5001            0.0000000000
     15117      5012  TIP3      H2            -30.7674716634      -14.2367829372       23.7458686288  SOLV      5001            0.0000000000
     15118      5013  TIP3      OH2           -29.4766476443       -7.9910647132       23.6036999284  SOLV      5002            0.0000000000
     15119      5013  TIP3      H1            -29.7636647187       -7.8792169350       22.6755093962  SOLV      5002            0.0000000000
     15120      5013  TIP3      H2            -30.3223663949       -8.0958251899       24.0771873771  SOLV      5002            0.0000000000
     15121      5014  TIP3      OH2           -18.9037953752      -23.9226217235       10.5404032942  SOLV      5003            0.0000000000
     15122      5014  TIP3      H1            -19.7228209769      -23.6929596867       11.0269145149  SOLV      5003            0.0000000000
     15123      5014  TIP3      H2            -18.7433737721      -23.0911239438       10.0461735527  SOLV      5003            0.0000000000
     15124      5015  TIP3      OH2           -31.4335720483      -16.4782895123       13.9714966973  SOLV      5004            0.0000000000
     15125      5015  TIP3      H1            -32.1421871116      -16.0429201192       13.4533673363  SOLV      5004            0.0000000000
     15126      5015  TIP3      H2            -31.7973478695      -17.3615107156       14.0991934134  SOLV      5004            0.0000000000
     15127      5016  TIP3      OH2           -20.8918053411      -10.2382050654        5.9799742551  SOLV      5005            0.0000000000
     15128      5016  TIP3      H1            -20.8093551829       -9.2693622743        5.8363414556  SOLV      5005            0.0000000000
     15129      5016  TIP3      H2            -19.9558104097      -10.5183728670        5.8858403463  SOLV      5005            0.0000000000
     15130      5017  TIP3      OH2           -33.5916843688      -12.7518119247       22.9335858652  SOLV      5006            0.0000000000
     15131      5017  TIP3      H1            -33.8319516165      -13.2387957890       22.1320661584  SOLV      5006            0.0000000000
     15132      5017  TIP3      H2            -33.3410808105      -13.4846263064       23.5321103618  SOLV      5006            0.0000000000
     15133      5018  TIP3      OH2           -35.0178932558      -10.7943145182       19.8088274599  SOLV      5007            0.0000000000
     15134      5018  TIP3      H1            -34.3066026132      -11.0884628097       19.2268809025  SOLV      5007            0.0000000000
     15135      5018  TIP3      H2            -34.6892594604       -9.9272695923       20.0964835058  SOLV      5007            0.0000000000
     15136      5019  TIP3      OH2           -16.4610760785       -6.1193075801       20.0092227849  SOLV      5008            0.0000000000
     15137      5019  TIP3      H1            -16.5020775378       -7.0880874694       20.1016409404  SOLV      5008            0.0000000000
     15138      5019  TIP3      H2            -17.3046117699       -5.8768352610       20.4572204456  SOLV      5008            0.0000000000
     15139      5020  TIP3      OH2           -25.4249840570       -8.2922077927       21.2837744806  SOLV      5009            0.0000000000
     15140      5020  TIP3      H1            -25.3991674490       -7.3566164079       21.5766458871  SOLV      5009            0.0000000000
     15141      5020  TIP3      H2            -26.1113586269       -8.6700936146       21.8732318192  SOLV      5009            0.0000000000
     15142      5021  TIP3      OH2           -27.9938352233       -7.0229723766       10.6833637338  SOLV      5010            0.0000000000
     15143      5021  TIP3      H1            -28.3070772704       -7.0877232810        9.7664292249  SOLV      5010            0.0000000000
     15144      5021  TIP3      H2            -28.1950447146       -6.1064306860       10.9400568596  SOLV      5010            0.0000000000
     15145      5022  TIP3      OH2           -33.3497402180       -8.5203357171       14.7383826091  SOLV      5011            0.0000000000
     15146      5022  TIP3      H1            -32.7828451324       -8.6193415340       15.5361280464  SOLV      5011            0.0000000000
     15147      5022  TIP3      H2            -34.1457808998       -8.9774062101       15.0795003517  SOLV      5011            0.0000000000
     15148      5023  TIP3      OH2           -25.8115206872       -8.0171732234        7.2398201891  SOLV      5012            0.0000000000
     15149      5023  TIP3      H1            -25.1995848261       -8.7103613347        6.9148987022  SOLV      5012            0.0000000000
     15150      5023  TIP3      H2            -25.4808843661       -7.8716350027        8.1550082548  SOLV      5012            0.0000000000
     15151      5024  TIP3      OH2           -25.3713661754       -7.5371936409        9.9535184236  SOLV      5013            0.0000000000
     15152      5024  TIP3      H1            -26.2427377504       -7.4526249581       10.3947081202  SOLV      5013            0.0000000000
     15153      5024  TIP3      H2            -24.9112653467       -8.0171973665       10.6849825414  SOLV      5013            0.0000000000
     15154      5025  TIP3      OH2           -17.5943717969      -14.9034987916       22.7347137974  SOLV      5014            0.0000000000
     15155      5025  TIP3      H1            -18.4186280417      -14.7762628482       22.2414320919  SOLV      5014            0.0000000000
     15156      5025  TIP3      H2            -17.4419720024      -15.8636791458       22.6208205081  SOLV      5014            0.0000000000
     15157      5026  TIP3      OH2           -31.7073939864      -10.7463987956       23.0402579036  SOLV      5015            0.0000000000
     15158      5026  TIP3      H1            -31.1306738878      -11.0901047257       23.7503143938  SOLV      5015            0.0000000000
     15159      5026  TIP3      H2            -32.4298421406      -11.4135653644       23.0145751648  SOLV      5015            0.0000000000
     15160      5027  TIP3      OH2           -27.7221270930      -22.5386656945       20.7376348758  SOLV      5016            0.0000000000
     15161      5027  TIP3      H1            -28.3977621469      -22.7078623040       20.0636608592  SOLV      5016            0.0000000000
     15162      5027  TIP3      H2            -28.0781300250      -21.7540414683       21.1944439409  SOLV      5016            0.0000000000
     15163      5028  TIP3      OH2           -22.1767873273      -21.4063794695       22.7378462580  SOLV      5017            0.0000000000
     15164      5028  TIP3      H1            -21.4959356839      -21.7017877036       23.3757208729  SOLV      5017            0.0000000000
     15165      5028  TIP3      H2            -23.0156004209      -21.5843673235       23.2146874760  SOLV      5017            0.0000000000
     15166      5029  TIP3      OH2           -19.9423333419      -17.1329028876       21.9049792306  SOLV      5018            0.0000000000
     15167      5029  TIP3      H1            -20.4532975834      -17.1347147922       22.7455227598  SOLV      5018            0.0000000000
     15168      5029  TIP3      H2            -20.1344897863      -16.2442331808       21.5440072969  SOLV      5018            0.0000000000
     15169      5030  TIP3      OH2           -23.3106355200      -15.9668658420        7.4594722791  SOLV      5019            0.0000000000
     15170      5030  TIP3      H1            -23.6352338746      -16.1212964373        6.5527241638  SOLV      5019            0.0000000000
     15171      5030  TIP3      H2            -22.5290906755      -15.4087061475        7.2835988718  SOLV      5019            0.0000000000
     15172      5031  TIP3      OH2           -26.1570134985      -22.1110397667       10.5078170479  SOLV      5020            0.0000000000
     15173      5031  TIP3      H1            -26.5160533488      -22.1483249591       11.4177740201  SOLV      5020            0.0000000000
     15174      5031  TIP3      H2            -26.5820580777      -22.9112809833       10.1370888745  SOLV      5020            0.0000000000
     15175      5032  TIP3      OH2           -28.2684448669      -17.3650031417       20.9996333115  SOLV      5021            0.0000000000
     15176      5032  TIP3      H1            -28.7477484179      -17.1289393024       21.8203178953  SOLV      5021            0.0000000000
     15177      5032  TIP3      H2            -28.4110954004      -16.5551843129       20.4584602722  SOLV      5021            0.0000000000
     15178      5033  TIP3      OH2           -29.4054282646      -18.5700954539       16.1283399333  SOLV      5022            0.0000000000
     15179      5033  TIP3      H1            -30.3261131332      -18.8607992341       16.3125996382  SOLV      5022            0.0000000000
     15180      5033  TIP3      H2            -29.2944498030      -18.9552860829       15.2297987538  SOLV      5022            0.0000000000
     15181      5034  TIP3      OH2           -24.5675704400      -17.7139517810       13.4178261136  SOLV      5023            0.0000000000
     15182      5034  TIP3      H1            -25.0676049747      -16.9900795006       12.9790735273  SOLV      5023            0.0000000000
     15183      5034  TIP3      H2            -24.0101937269      -18.0374522295       12.6832803770  SOLV      5023            0.0000000000
     15184      5035  TIP3      OH2           -22.7990624865      -14.9687955928       24.2167103693  SOLV      5024            0.0000000000
     15185      5035  TIP3      H1            -22.9974326845      -15.6847195464       24.8566561157  SOLV      5024            0.0000000000
     15186      5035  TIP3      H2            -21.8631517034      -14.7942352921       24.4297086619  SOLV      5024            0.0000000000
     15187      5036  TIP3      OH2           -23.0460124693      -17.4394217015       15.7963535855  SOLV      5025            0.0000000000
     15188      5036  TIP3      H1            -23.6378711233      -17.1000173260       15.0939242139  SOLV      5025            0.0000000000
     15189      5036  TIP3      H2            -22.6924878328      -18.2170088760       15.3151128474  SOLV      5025            0.0000000000
     15190      5037  TIP3      OH2           -30.0620105994      -17.0977412682       23.0853873179  SOLV      5026            0.0000000000
     15191      5037  TIP3      H1            -29.7604278962      -16.4009095357       23.6906296848  SOLV      5026            0.0000000000
     15192      5037  TIP3      H2            -30.2541589657      -17.8365132093       23.6865341898  SOLV      5026            0.0000000000
     15193      5038  TIP3      OH2           -29.6012920421      -22.3512767209       10.2120332162  SOLV      5027            0.0000000000
     15194      5038  TIP3      H1            -29.7249974958      -22.4200589188       11.1782197218  SOLV      5027            0.0000000000
     15195      5038  TIP3      H2            -30.4182611142      -21.8822515653        9.9619266505  SOLV      5027            0.0000000000
     15196      5039  TIP3      OH2           -33.8347996078      -21.9101663557       14.2675192345  SOLV      5028            0.0000000000
     15197      5039  TIP3      H1            -33.8557578151      -21.5309888986       13.3686440351  SOLV      5028            0.0000000000
     15198      5039  TIP3      H2            -34.6492636972      -21.5527966126       14.6562787657  SOLV      5028            0.0000000000
     15199      5040  TIP3      OH2           -22.9588545796      -15.0148784682       19.9957630976  SOLV      5029            0.0000000000
     15200      5040  TIP3      H1            -22.5943859736      -15.7058925015       19.3956838636  SOLV      5029            0.0000000000
     15201      5040  TIP3      H2            -23.2533299065      -15.5723484605       20.7449464256  SOLV      5029            0.0000000000
     15202      5041  TIP3      OH2           -26.1071147984      -20.3651101547       16.7095161926  SOLV      5030            0.0000000000
     15203      5041  TIP3      H1            -26.9314235533      -20.3780801246       17.2330100075  SOLV      5030            0.0000000000
     15204      5041  TIP3      H2            -25.4267295131      -20.3448713698       17.4024562260  SOLV      5030            0.0000000000
     15205      5042  TIP3      OH2           -31.7528543604      -19.7920649228       16.7740450526  SOLV      5031            0.0000000000
     15206      5042  TIP3      H1            -32.6296150008      -19.5723806658       16.3828866260  SOLV      5031            0.0000000000
     15207      5042  TIP3      H2            -31.7027052739      -20.7539080810       16.6340705005  SOLV      5031            0.0000000000
     15208      5043  TIP3      OH2           -29.1957474458      -19.8138307577       13.7047683626  SOLV      5032            0.0000000000
     15209      5043  TIP3      H1            -28.2673361760      -19.6519896412       13.4540945319  SOLV      5032            0.0000000000
     15210      5043  TIP3      H2            -29.6935908232      -19.5915712326       12.8825183332  SOLV      5032            0.0000000000
     15211      5044  TIP3      OH2           -21.2539340293      -19.5911464083       18.7493734928  SOLV      5033            0.0000000000
     15212      5044  TIP3      H1            -21.5603535416      -19.4329158808       19.6711825355  SOLV      5033            0.0000000000
     15213      5044  TIP3      H2            -21.9636487173      -20.1766675140       18.4284676164  SOLV      5033            0.0000000000
     15214      5045  TIP3      OH2           -30.6926254791      -19.4255633922       11.4772579210  SOLV      5034            0.0000000000
     15215      5045  TIP3      H1            -31.3909639722      -19.9096768797       11.0045256776  SOLV      5034            0.0000000000
     15216      5045  TIP3      H2            -30.1784470617      -19.0669733653       10.7236161214  SOLV      5034            0.0000000000
     15217      5046  TIP3      OH2           -19.1986940656       -2.8405682265       20.8095206986  SOLV      5035            0.0000000000
     15218      5046  TIP3      H1            -19.6483063533       -2.4410223321       20.0516789864  SOLV      5035            0.0000000000
     15219      5046  TIP3      H2            -18.9369850643       -2.0708493670       21.3289488230  SOLV      5035            0.0000000000
     15220      5047  TIP3      OH2           -29.9971976729      -11.6115031379       25.1252661796  SOLV      5036            0.0000000000
     15221      5047  TIP3      H1            -29.1917077402      -11.2805451148       25.5751143221  SOLV      5036            0.0000000000
     15222      5047  TIP3      H2            -30.6236247974      -11.6232444237       25.8744798328  SOLV      5036            0.0000000000
     15223      5048  TIP3      OH2           -25.3683150564      -17.0610243514       17.6631402769  SOLV      5037            0.0000000000
     15224      5048  TIP3      H1            -24.6030021017      -17.3651781863       17.1485562298  SOLV      5037            0.0000000000
     15225      5048  TIP3      H2            -25.2388526143      -17.5038535189       18.5184377903  SOLV      5037            0.0000000000
     15226      5049  TIP3      OH2           -29.9680279659      -22.2135681807       16.4673707481  SOLV      5038            0.0000000000
     15227      5049  TIP3      H1            -30.5673359303      -22.9486476649       16.6511066083  SOLV      5038            0.0000000000
     15228      5049  TIP3      H2            -29.6639259859      -22.4176600330       15.5723878544  SOLV      5038            0.0000000000
     15229      5050  TIP3      OH2           -25.5940230419      -18.0764572114       20.6737674393  SOLV      5039            0.0000000000
     15230      5050  TIP3      H1            -26.4782390888      -17.6663303629       20.7487628601  SOLV      5039            0.0000000000
     15231      5050  TIP3      H2            -25.0097161273      -17.4264629574       21.1143156298  SOLV      5039            0.0000000000
     15232      5051  TIP3      OH2           -28.2355498041      -14.2050730199       11.5366431106  SOLV      5040            0.0000000000
     15233      5051  TIP3      H1            -28.9867969190      -14.8191056644       11.4148605662  SOLV      5040            0.0000000000
     15234      5051  TIP3      H2            -28.4434196441      -13.8336786914       12.4297222137  SOLV      5040            0.0000000000
     15235      5052  TIP3      OH2           -19.2608326077      -11.8369905909       17.7966541569  SOLV      5041            0.0000000000
     15236      5052  TIP3      H1            -19.0807492004      -11.2961061161       17.0003350968  SOLV      5041            0.0000000000
     15237      5052  TIP3      H2            -20.1168255731      -12.2605225185       17.5579484455  SOLV      5041            0.0000000000
     15238      5053  TIP3      OH2           -23.6575226871      -21.0887638481       10.2309722835  SOLV      5042            0.0000000000
     15239      5053  TIP3      H1            -24.6196233840      -21.2942879030       10.3126802599  SOLV      5042            0.0000000000
     15240      5053  TIP3      H2            -23.6069101455      -20.1440130034       10.4823047842  SOLV      5042            0.0000000000
     15241      5054  TIP3      OH2           -24.3712179235      -11.0415108895       21.6036732021  SOLV      5043            0.0000000000
     15242      5054  TIP3      H1            -23.8386903936      -11.0167441804       22.4079696183  SOLV      5043            0.0000000000
     15243      5054  TIP3      H2            -24.6198866076      -10.1075181384       21.4892840530  SOLV      5043            0.0000000000
     15244      5055  TIP3      OH2           -22.9946742086      -18.5616783170       11.2400390545  SOLV      5044            0.0000000000
     15245      5055  TIP3      H1            -22.0377375724      -18.4663122857       11.4081202463  SOLV      5044            0.0000000000
     15246      5055  TIP3      H2            -23.2095606457      -17.7344236170       10.7609360673  SOLV      5044            0.0000000000
     15247      5056  TIP3      OH2           -31.3135122801      -13.9302673406       18.2848965798  SOLV      5045            0.0000000000
     15248      5056  TIP3      H1            -30.9380116188      -14.1961198313       17.4190697833  SOLV      5045            0.0000000000
     15249      5056  TIP3      H2            -30.8175997989      -14.4977466415       18.8915619170  SOLV      5045            0.0000000000
     15250      5057  TIP3      OH2           -26.8046687680      -12.7200410734        9.6830343984  SOLV      5046            0.0000000000
     15251      5057  TIP3      H1            -27.2804385080      -11.8590454831        9.7535461492  SOLV      5046            0.0000000000
     15252      5057  TIP3      H2            -27.2431930461      -13.2256121264       10.3982318649  SOLV      5046            0.0000000000
     15253      5058  TIP3      OH2           -32.5749733161      -14.7202472281       24.5815628645  SOLV      5047            0.0000000000
     15254      5058  TIP3      H1            -32.1564903207      -14.7241186484       25.4671404139  SOLV      5047            0.0000000000
     15255      5058  TIP3      H2            -32.9778745324      -15.5972203101       24.5401307675  SOLV      5047            0.0000000000
     15256      5059  TIP3      OH2           -25.1896290768      -13.6162180148       24.6729767551  SOLV      5048            0.0000000000
     15257      5059  TIP3      H1            -25.7812245574      -14.1273911742       24.1018816910  SOLV      5048            0.0000000000
     15258      5059  TIP3      H2            -24.3149235935      -13.9398756536       24.3689301612  SOLV      5048            0.0000000000
     15259      5060  TIP3      OH2           -22.6772643866       -8.5592882491       20.6567696929  SOLV      5049            0.0000000000
     15260      5060  TIP3      H1            -23.6328457322       -8.3764563051       20.6421839684  SOLV      5049            0.0000000000
     15261      5060  TIP3      H2            -22.3900345420       -7.9452856188       21.3649338879  SOLV      5049            0.0000000000
     15262      5061  TIP3      OH2           -18.5398535363      -17.6142250368        9.5214313061  SOLV      5050            0.0000000000
     15263      5061  TIP3      H1            -19.1651177579      -18.0457502409        8.8918484211  SOLV      5050            0.0000000000
     15264      5061  TIP3      H2            -18.6263444730      -16.6951831199        9.1790224442  SOLV      5050            0.0000000000
     15265      5062  TIP3      OH2           -16.3494042633       -9.0674376273       20.3669702209  SOLV      5051            0.0000000000
     15266      5062  TIP3      H1            -17.3264462523       -9.1141445919       20.2711861070  SOLV      5051            0.0000000000
     15267      5062  TIP3      H2            -16.0835951848       -9.3722389032       19.4690654726  SOLV      5051            0.0000000000
     15268      5063  TIP3      OH2           -21.5212490111       -9.5706098606        8.6380301079  SOLV      5052            0.0000000000
     15269      5063  TIP3      H1            -21.9299431619      -10.2659139880        9.1694942477  SOLV      5052            0.0000000000
     15270      5063  TIP3      H2            -21.3942239017       -9.9966807700        7.7722621605  SOLV      5052            0.0000000000
     15271      5064  TIP3      OH2           -21.5900068438      -13.2676812742       17.1951898742  SOLV      5053            0.0000000000
     15272      5064  TIP3      H1            -22.5452593213      -13.4677316204       17.2118362924  SOLV      5053            0.0000000000
     15273      5064  TIP3      H2            -21.2730248510      -13.9207838220       16.5453018471  SOLV      5053            0.0000000000
     15274      5065  TIP3      OH2           -30.2343221871      -10.8637438439       14.5959018164  SOLV      5054            0.0000000000
     15275      5065  TIP3      H1            -30.2483237931      -10.0775721808       14.0161111309  SOLV      5054            0.0000000000
     15276      5065  TIP3      H2            -31.1762500059      -11.0442926267       14.6879370043  SOLV      5054            0.0000000000
     15277      5066  TIP3      OH2           -34.7493799702      -17.7647291600       11.5507499898  SOLV      5055            0.0000000000
     15278      5066  TIP3      H1            -34.0899617890      -17.0552454530       11.7200946761  SOLV      5055            0.0000000000
     15279      5066  TIP3      H2            -35.4136799140      -17.5181203707       12.2069061477  SOLV      5055            0.0000000000
     15280      5067  TIP3      OH2           -29.0715115511      -13.3152230143       13.9356499394  SOLV      5056            0.0000000000
     15281      5067  TIP3      H1            -29.3166641459      -12.3931665161       14.1471055262  SOLV      5056            0.0000000000
     15282      5067  TIP3      H2            -29.3817573026      -13.7871031361       14.7283996554  SOLV      5056            0.0000000000
     15283      5068  TIP3      OH2           -27.5785937649       -7.5092728875       19.2435520710  SOLV      5057            0.0000000000
     15284      5068  TIP3      H1            -27.1804834335       -6.7671489253       18.7334885128  SOLV      5057            0.0000000000
     15285      5068  TIP3      H2            -26.7898586465       -7.8474584329       19.6985687502  SOLV      5057            0.0000000000
     15286      5069  TIP3      OH2           -31.1206300513       -8.5060136223       13.0550858458  SOLV      5058            0.0000000000
     15287      5069  TIP3      H1            -31.9605723988       -8.4323501504       13.5501180112  SOLV      5058            0.0000000000
     15288      5069  TIP3      H2            -30.7914072792       -7.5831121656       13.0986937796  SOLV      5058            0.0000000000
     15289      5070  TIP3      OH2           -23.7990231840      -11.1725698161       18.8974008012  SOLV      5059            0.0000000000
     15290      5070  TIP3      H1            -23.8679768044      -11.2255374965       19.8733470323  SOLV      5059            0.0000000000
     15291      5070  TIP3      H2            -22.9435200191      -11.5932609763       18.7325621699  SOLV      5059            0.0000000000
     15292      5071  TIP3      OH2           -23.9778437251      -12.1944083649        7.6507864252  SOLV      5060            0.0000000000
     15293      5071  TIP3      H1            -23.3998031601      -12.4996358471        8.3912260192  SOLV      5060            0.0000000000
     15294      5071  TIP3      H2            -24.8509250475      -12.3834455532        8.0259054779  SOLV      5060            0.0000000000
     15295      5072  TIP3      OH2           -21.1196379939       -5.8718943373       19.2824376583  SOLV      5061            0.0000000000
     15296      5072  TIP3      H1            -22.0184165332       -6.2190057397       19.4184467833  SOLV      5061            0.0000000000
     15297      5072  TIP3      H2            -21.3109697340       -5.1305653142       18.6689279251  SOLV      5061            0.0000000000
     15298      5073  TIP3      OH2           -20.5745993586       -7.4730245915        5.8442122231  SOLV      5062            0.0000000000
     15299      5073  TIP3      H1            -20.1646908411       -6.7068925733        5.4057545121  SOLV      5062            0.0000000000
     15300      5073  TIP3      H2            -21.3835424427       -7.0399589156        6.1887277872  SOLV      5062            0.0000000000
     15301      5074  TIP3      OH2           -30.4938356332      -19.7771998619       24.5585430093  SOLV      5063            0.0000000000
     15302      5074  TIP3      H1            -31.4009192516      -19.5446504125       24.8276997201  SOLV      5063            0.0000000000
     15303      5074  TIP3      H2            -30.2362376662      -20.3417991571       25.3033342308  SOLV      5063            0.0000000000
     15304      5075  TIP3      OH2           -22.2923436079      -13.0287354738        9.6196304723  SOLV      5064            0.0000000000
     15305      5075  TIP3      H1            -22.4686130467      -13.4371418906       10.4869811932  SOLV      5064            0.0000000000
     15306      5075  TIP3      H2            -21.3125164258      -13.0382342122        9.6103702528  SOLV      5064            0.0000000000
     15307      5076  TIP3      OH2           -33.2777961686       -8.8123219051       20.8434887121  SOLV      5065            0.0000000000
     15308      5076  TIP3      H1            -32.7254563580       -9.5483938236       21.1529194037  SOLV      5065            0.0000000000
     15309      5076  TIP3      H2            -32.8846453163       -8.0653429702       21.3179411999  SOLV      5065            0.0000000000
     15310      5077  TIP3      OH2           -30.3753421721      -12.3849168466        7.6813486049  SOLV      5066            0.0000000000
     15311      5077  TIP3      H1            -30.1721722357      -13.3085096660        7.4520415519  SOLV      5066            0.0000000000
     15312      5077  TIP3      H2            -30.5386476787      -12.4552031659        8.6423982441  SOLV      5066            0.0000000000
     15313      5078  TIP3      OH2           -30.9039133604      -12.3503633865       10.4091098464  SOLV      5067            0.0000000000
     15314      5078  TIP3      H1            -30.0882966590      -12.5789145782       10.8783478302  SOLV      5067            0.0000000000
     15315      5078  TIP3      H2            -30.8924210542      -11.3668683221       10.4758602719  SOLV      5067            0.0000000000
     15316      5079  TIP3      OH2           -33.5295333634      -15.4528948416       12.4264285466  SOLV      5068            0.0000000000
     15317      5079  TIP3      H1            -34.1785546665      -14.9801946277       12.9990940618  SOLV      5068            0.0000000000
     15318      5079  TIP3      H2            -33.3510859332      -14.7510375145       11.7733880904  SOLV      5068            0.0000000000
     15319      5080  TIP3      OH2           -21.9736930300      -19.0428024825       21.3454630764  SOLV      5069            0.0000000000
     15320      5080  TIP3      H1            -21.1694107780      -18.6259315724       21.7002864514  SOLV      5069            0.0000000000
     15321      5080  TIP3      H2            -22.0621033513      -19.8477275940       21.8998824505  SOLV      5069            0.0000000000
     15322      5081  TIP3      OH2           -23.1503696901      -21.5971383121       13.0539634062  SOLV      5070            0.0000000000
     15323      5081  TIP3      H1            -23.3248594759      -21.3765335882       12.1194818152  SOLV      5070            0.0000000000
     15324      5081  TIP3      H2            -22.7870118404      -20.7527498147       13.3993723168  SOLV      5070            0.0000000000
     15325      5082  TIP3      OH2           -28.2558024982      -10.4407693188        9.8384856048  SOLV      5071            0.0000000000
     15326      5082  TIP3      H1            -29.0860303032      -10.1328544394       10.2454763288  SOLV      5071            0.0000000000
     15327      5082  TIP3      H2            -27.8790733105       -9.5938005361        9.5570553907  SOLV      5071            0.0000000000
     15328      5083  TIP3      OH2           -26.3502694463      -19.7119809872       14.0312438985  SOLV      5072            0.0000000000
     15329      5083  TIP3      H1            -25.7274980877      -18.9720195971       13.8572788105  SOLV      5072            0.0000000000
     15330      5083  TIP3      H2            -26.2897861289      -19.7867920444       15.0070447297  SOLV      5072            0.0000000000
     15331      5084  TIP3      OH2           -23.6436407744      -16.6156939984       22.0941241949  SOLV      5073            0.0000000000
     15332      5084  TIP3      H1            -23.3531186876      -16.0646749836       22.8506502150  SOLV      5073            0.0000000000
     15333      5084  TIP3      H2            -23.0791530050      -17.4039900496       22.1780188015  SOLV      5073            0.0000000000
     15334      5085  TIP3      OH2           -24.8998379651      -22.4826162409       15.0257257535  SOLV      5074            0.0000000000
     15335      5085  TIP3      H1            -25.0233366621      -21.6597024833       15.5358265697  SOLV      5074            0.0000000000
     15336      5085  TIP3      H2            -24.2590069787      -22.1817742041       14.3410075898  SOLV      5074            0.0000000000
     15337      5086  TIP3      OH2           -30.8233119222       -9.6405837140       10.5651456385  SOLV      5075            0.0000000000
     15338      5086  TIP3      H1            -31.0566789409       -8.9029800455        9.9596148833  SOLV      5075            0.0000000000
     15339      5086  TIP3      H2            -30.9155426819       -9.2037282097       11.4413864499  SOLV      5075            0.0000000000
     15340      5087  TIP3      OH2           -29.6794201018      -22.4732393547       13.0471914829  SOLV      5076            0.0000000000
     15341      5087  TIP3      H1            -29.7298165879      -21.5453931456       13.3521849561  SOLV      5076            0.0000000000
     15342      5087  TIP3      H2            -28.7068154633      -22.6019710302       13.0701429186  SOLV      5076            0.0000000000
     15343      5088  TIP3      OH2           -17.2727852560      -17.5691612927       21.9451133812  SOLV      5077            0.0000000000
     15344      5088  TIP3      H1            -18.2547244892      -17.5927856990       21.9833509465  SOLV      5077            0.0000000000
     15345      5088  TIP3      H2            -17.1247692069      -17.9171959339       21.0562810646  SOLV      5077            0.0000000000
     15346      5089  TIP3      OH2           -20.7169053811      -15.6616717798       15.7522488959  SOLV      5078            0.0000000000
     15347      5089  TIP3      H1            -21.5012378673      -16.2099295347       15.9184737208  SOLV      5078            0.0000000000
     15348      5089  TIP3      H2            -20.0222713676      -16.1147473564       16.2714849633  SOLV      5078            0.0000000000
     15349      5090  TIP3      OH2           -33.5716946176      -13.3693924903       10.4233693995  SOLV      5079            0.0000000000
     15350      5090  TIP3      H1            -32.8606923327      -12.7164285479       10.5758420502  SOLV      5079            0.0000000000
     15351      5090  TIP3      H2            -33.1019025936      -13.9500975391        9.7854813752  SOLV      5079            0.0000000000
     15352      5091  TIP3      OH2           -34.2440568545      -20.5153571832       11.8705176121  SOLV      5080            0.0000000000
     15353      5091  TIP3      H1            -34.3026083424      -19.5453749321       11.8200230631  SOLV      5080            0.0000000000
     15354      5091  TIP3      H2            -34.7882294510      -20.8136461188       11.1335182650  SOLV      5080            0.0000000000
     15355      5092  TIP3      OH2           -21.0343114040       -5.9525061365       15.2479780366  SOLV      5081            0.0000000000
     15356      5092  TIP3      H1            -21.4694900359       -5.4302015129       14.5373660190  SOLV      5081            0.0000000000
     15357      5092  TIP3      H2            -20.0907982502       -5.8035935535       15.0177282558  SOLV      5081            0.0000000000
     15358      5093  TIP3      OH2           -35.1228526406      -11.3485569102       14.3206255901  SOLV      5082            0.0000000000
     15359      5093  TIP3      H1            -35.4109184159      -10.8691874647       15.1140103240  SOLV      5082            0.0000000000
     15360      5093  TIP3      H2            -35.4051608994      -10.7384261910       13.6038225210  SOLV      5082            0.0000000000
     15361      5094  TIP3      OH2           -33.0726817819       -5.4804028900       24.9255150416  SOLV      5083            0.0000000000
     15362      5094  TIP3      H1            -32.2957154187       -5.4131844073       25.5224509544  SOLV      5083            0.0000000000
     15363      5094  TIP3      H2            -33.1371165249       -6.4423804699       24.8406554692  SOLV      5083            0.0000000000
     15364      5095  TIP3      OH2           -28.5431879329       -6.2366477075       25.5578457873  SOLV      5084            0.0000000000
     15365      5095  TIP3      H1            -27.5765377969       -6.2610026639       25.5488107565  SOLV      5084            0.0000000000
     15366      5095  TIP3      H2            -28.7533419966       -6.8179101687       24.7998696695  SOLV      5084            0.0000000000
     15367      5096  TIP3      OH2           -28.7286319493      -10.3740020145        6.7165848310  SOLV      5085            0.0000000000
     15368      5096  TIP3      H1            -29.2607765927      -11.0739161877        7.1575330951  SOLV      5085            0.0000000000
     15369      5096  TIP3      H2            -27.9406872766      -10.8805419037        6.4585497526  SOLV      5085            0.0000000000
     15370      5097  TIP3      OH2           -22.1735921321       -7.0416733305       22.9115461416  SOLV      5086            0.0000000000
     15371      5097  TIP3      H1            -22.1758431324       -7.7186481603       23.6247252119  SOLV      5086            0.0000000000
     15372      5097  TIP3      H2            -21.4257225356       -6.4641007874       23.1667725325  SOLV      5086            0.0000000000
     15373      5098  TIP3      OH2           -24.3561360173       -9.9930939752        5.9189423100  SOLV      5087            0.0000000000
     15374      5098  TIP3      H1            -23.9538786680      -10.6358321494        6.5341344372  SOLV      5087            0.0000000000
     15375      5098  TIP3      H2            -23.7642348092      -10.0325195985        5.1444316589  SOLV      5087            0.0000000000
     15376      5099  TIP3      OH2           -32.0776427402      -11.8847921109       26.9467601647  SOLV      5088            0.0000000000
     15377      5099  TIP3      H1            -31.7265915661      -12.7795132907       27.1332138997  SOLV      5088            0.0000000000
     15378      5099  TIP3      H2            -32.9288643320      -12.1031208017       26.5513877995  SOLV      5088            0.0000000000
     15379      5100  TIP3      OH2           -32.2296712016      -15.2785033644        9.0516846311  SOLV      5089            0.0000000000
     15380      5100  TIP3      H1            -31.6355417486      -15.5223601733        9.7894331525  SOLV      5089            0.0000000000
     15381      5100  TIP3      H2            -31.5647169153      -15.1983532242        8.3294067131  SOLV      5089            0.0000000000
     15382      5101  TIP3      OH2           -25.9748505084      -10.8298279828       24.8326938425  SOLV      5090            0.0000000000
     15383      5101  TIP3      H1            -26.3224346390      -10.5601040315       23.9550957902  SOLV      5090            0.0000000000
     15384      5101  TIP3      H2            -25.6294157848      -11.7279923003       24.6581477772  SOLV      5090            0.0000000000
     15385      5102  TIP3      OH2           -27.1404041323      -13.2205442604        7.0426755651  SOLV      5091            0.0000000000
     15386      5102  TIP3      H1            -27.0775834553      -13.0818303878        8.0131002689  SOLV      5091            0.0000000000
     15387      5102  TIP3      H2            -27.1109202642      -14.1998020218        7.0038246965  SOLV      5091            0.0000000000
     15388      5103  TIP3      OH2           -21.0091708756      -10.7094886029       20.9008108976  SOLV      5092            0.0000000000
     15389      5103  TIP3      H1            -20.2392598736      -10.3241272879       20.4371522824  SOLV      5092            0.0000000000
     15390      5103  TIP3      H2            -21.6665597477       -9.9914117785       20.7573739406  SOLV      5092            0.0000000000
     15391      5104  TIP3      OH2           -31.0679301012      -14.4553831453       26.9228828688  SOLV      5093            0.0000000000
     15392      5104  TIP3      H1            -30.2871688689      -14.9353791182       26.6236010487  SOLV      5093            0.0000000000
     15393      5104  TIP3      H2            -30.7809817555      -14.1858942111       27.8283534567  SOLV      5093            0.0000000000
     15394      5105  TIP3      OH2           -30.2762375208      -16.1318848584       11.1456621659  SOLV      5094            0.0000000000
     15395      5105  TIP3      H1            -30.4483437603      -16.5239376647       12.0175108320  SOLV      5094            0.0000000000
     15396      5105  TIP3      H2            -29.8357691280      -16.8687825780       10.6724043573  SOLV      5094            0.0000000000
     15397      5106  TIP3      OH2           -27.4669999621      -15.5606205907       23.4836124449  SOLV      5095            0.0000000000
     15398      5106  TIP3      H1            -28.2233232584      -14.9361110258       23.5092095100  SOLV      5095            0.0000000000
     15399      5106  TIP3      H2            -26.9326157063      -15.1894769161       22.7406794371  SOLV      5095            0.0000000000
     15400      5107  TIP3      OH2           -29.1280816976      -18.1690623240        9.6056384565  SOLV      5096            0.0000000000
     15401      5107  TIP3      H1            -29.3619263928      -18.0743991734        8.6589511381  SOLV      5096            0.0000000000
     15402      5107  TIP3      H2            -28.1487274175      -18.1615792129        9.5494554278  SOLV      5096            0.0000000000
     15403      5108  TIP3      OH2           -22.3018557401      -11.5094053086       24.8564328981  SOLV      5097            0.0000000000
     15404      5108  TIP3      H1            -21.5550511769      -11.8012214082       24.3183744215  SOLV      5097            0.0000000000
     15405      5108  TIP3      H2            -22.3171174591      -12.1688842402       25.5722159757  SOLV      5097            0.0000000000
     15406      5109  TIP3      OH2           -20.9477769947      -14.9472907891        6.3003648934  SOLV      5098            0.0000000000
     15407      5109  TIP3      H1            -21.1557208418      -15.3450445553        5.4321503281  SOLV      5098            0.0000000000
     15408      5109  TIP3      H2            -21.2682326163      -14.0298461199        6.1276001396  SOLV      5098            0.0000000000
     15409      5110  TIP3      OH2           -26.1992410613      -17.5928580918       24.7382375794  SOLV      5099            0.0000000000
     15410      5110  TIP3      H1            -26.1754387881      -18.3728699498       24.1456164162  SOLV      5099            0.0000000000
     15411      5110  TIP3      H2            -26.6353318774      -16.9230279216       24.1617554442  SOLV      5099            0.0000000000
     15412      5111  TIP3      OH2           -26.1591406354      -19.7203298281       22.8939025396  SOLV      5100            0.0000000000
     15413      5111  TIP3      H1            -25.8686955472      -19.2853576032       22.0640002426  SOLV      5100            0.0000000000
     15414      5111  TIP3      H2            -27.0841477530      -19.9571661466       22.6788874069  SOLV      5100            0.0000000000
     15415      5112  TIP3      OH2           -25.9797094266      -14.3989412169       21.5990510357  SOLV      5101            0.0000000000
     15416      5112  TIP3      H1            -25.1061771464      -14.2019038191       21.2326586447  SOLV      5101            0.0000000000
     15417      5112  TIP3      H2            -26.5425101052      -13.7491073888       21.1237390879  SOLV      5101            0.0000000000
     15418      5113  TIP3      OH2           -20.1612833413      -14.7254991821       25.3208413720  SOLV      5102            0.0000000000
     15419      5113  TIP3      H1            -19.6284496066      -15.5253704929       25.4463583466  SOLV      5102            0.0000000000
     15420      5113  TIP3      H2            -19.5120227965      -14.1094277667       24.9491206753  SOLV      5102            0.0000000000
     15421      5114  TIP3      OH2           -19.7415600032      -12.2018966745       22.7281110988  SOLV      5103            0.0000000000
     15422      5114  TIP3      H1            -20.3149560132      -11.6423266078       22.1485393067  SOLV      5103            0.0000000000
     15423      5114  TIP3      H2            -18.8620128698      -11.9722464416       22.3501727417  SOLV      5103            0.0000000000
     15424      5115  TIP3      OH2           -27.3720164364      -16.5145175403       27.0607968028  SOLV      5104            0.0000000000
     15425      5115  TIP3      H1            -28.1095696201      -17.1529812901       27.1243831303  SOLV      5104            0.0000000000
     15426      5115  TIP3      H2            -27.0525251827      -16.6849731071       26.1511357518  SOLV      5104            0.0000000000
     15427      5116  TIP3      OH2           -24.7254355194      -22.0040096899       23.6155507359  SOLV      5105            0.0000000000
     15428      5116  TIP3      H1            -25.2488472271      -21.2143974762       23.3567080948  SOLV      5105            0.0000000000
     15429      5116  TIP3      H2            -25.3794049153      -22.7182579105       23.4377961611  SOLV      5105            0.0000000000
     15430      5117  TIP3      OH2           -23.6196325877      -17.1375555911       25.6967026997  SOLV      5106            0.0000000000
     15431      5117  TIP3      H1            -23.8206218754      -17.2791631959       26.6373273979  SOLV      5106            0.0000000000
     15432      5117  TIP3      H2            -24.4979665420      -17.3331452958       25.3048118126  SOLV      5106            0.0000000000
     15433      5118  TIP3      OH2           -21.2608455496      -17.6003950562       24.2114167385  SOLV      5107            0.0000000000
     15434      5118  TIP3      H1            -21.9806665924      -17.5862895504       24.8719299188  SOLV      5107            0.0000000000
     15435      5118  TIP3      H2            -20.4907254238      -17.8927149779       24.7433646143  SOLV      5107            0.0000000000
     15436      5119  TIP3      OH2           -18.9662956508      -18.2260424799       25.6408971158  SOLV      5108            0.0000000000
     15437      5119  TIP3      H1            -18.8262097892      -19.1730256404       25.8438901076  SOLV      5108            0.0000000000
     15438      5119  TIP3      H2            -18.9997792590      -17.8126706944       26.5296335827  SOLV      5108            0.0000000000
     15439      5120  TIP3      OH2           -29.1818329595      -18.4893382831       27.6725818864  SOLV      5109            0.0000000000
     15440      5120  TIP3      H1            -29.2285863103      -19.4432407367       27.4309179292  SOLV      5109            0.0000000000
     15441      5120  TIP3      H2            -28.6685717647      -18.5597459779       28.4845952003  SOLV      5109            0.0000000000
     15442      5121  TIP3      OH2           -24.0422632664      -22.0800471415       26.2400877729  SOLV      5110            0.0000000000
     15443      5121  TIP3      H1            -23.3461004121      -22.7611787474       26.1431847124  SOLV      5110            0.0000000000
     15444      5121  TIP3      H2            -24.3420749316      -22.0249238469       25.3054519540  SOLV      5110            0.0000000000
     15445      5122  TIP3      OH2           -23.2958056438      -19.8207741464       27.6675509074  SOLV      5111            0.0000000000
     15446      5122  TIP3      H1            -23.4892773201      -20.5692923969       27.0648875520  SOLV      5111            0.0000000000
     15447      5122  TIP3      H2            -24.1155142135      -19.2893035369       27.6134775811  SOLV      5111            0.0000000000
     15448      5123  TIP3      OH2           -31.0624033346       -7.5977956731        8.6811605068  SOLV      5112            0.0000000000
     15449      5123  TIP3      H1            -30.1043066916       -7.7236147173        8.5271573576  SOLV      5112            0.0000000000
     15450      5123  TIP3      H2            -31.2747080769       -7.0645597464        7.8910448950  SOLV      5112            0.0000000000
     15451      5124  TIP3      OH2           -36.2280252572      -13.8635326599       10.8309947072  SOLV      5113            0.0000000000
     15452      5124  TIP3      H1            -35.2874546003      -13.6100701377       10.6997609510  SOLV      5113            0.0000000000
     15453      5124  TIP3      H2            -36.2589543321      -14.7464076710       10.4261199940  SOLV      5113            0.0000000000
     15454      5125  TIP3      OH2           -35.4180081418       -9.1168267310       16.4607090515  SOLV      5114            0.0000000000
     15455      5125  TIP3      H1            -36.2801805163       -9.5098161111       16.7163493324  SOLV      5114            0.0000000000
     15456      5125  TIP3      H2            -35.1692839267       -8.6155375643       17.2578831689  SOLV      5114            0.0000000000
     15457      5126  TIP3      OH2           -18.4319983271       -5.2154212387       14.8714518023  SOLV      5115            0.0000000000
     15458      5126  TIP3      H1            -18.2175708325       -4.8734787126       15.7592541375  SOLV      5115            0.0000000000
     15459      5126  TIP3      H2            -17.7944442959       -4.7496507156       14.3082262517  SOLV      5115            0.0000000000
     15460      5127  TIP3      OH2           -18.1987580109       -4.9372690868       17.6737571741  SOLV      5116            0.0000000000
     15461      5127  TIP3      H1            -18.6626514857       -5.8004406816       17.6270996684  SOLV      5116            0.0000000000
     15462      5127  TIP3      H2            -17.4821746754       -5.1722353799       18.2806175620  SOLV      5116            0.0000000000
     15463      5128  TIP3      OH2           -17.6978966646       -8.2034260714       23.4464692205  SOLV      5117            0.0000000000
     15464      5128  TIP3      H1            -18.4383452059       -8.0867825815       24.0767208616  SOLV      5117            0.0000000000
     15465      5128  TIP3      H2            -17.3126355010       -7.3045194261       23.4347431592  SOLV      5117            0.0000000000
     15466      5129  TIP3      OH2           -19.5088473879      -13.0927641621        9.5793244150  SOLV      5118            0.0000000000
     15467      5129  TIP3      H1            -18.8897688249      -12.3937713279        9.2837775281  SOLV      5118            0.0000000000
     15468      5129  TIP3      H2            -19.0565789787      -13.4227234605       10.3855941814  SOLV      5118            0.0000000000
     15469      5130  TIP3      OH2           -18.2473871874      -14.4371200341       11.6328277015  SOLV      5119            0.0000000000
     15470      5130  TIP3      H1            -18.9586068765      -14.7910157306       12.2123128566  SOLV      5119            0.0000000000
     15471      5130  TIP3      H2            -17.6464125245      -14.0103006221       12.2768046785  SOLV      5119            0.0000000000
     15472      5131  TIP3      OH2           -17.6379746291      -10.3892279079       16.0323432230  SOLV      5120            0.0000000000
     15473      5131  TIP3      H1            -17.2562808620      -11.0876414912       15.4735346855  SOLV      5120            0.0000000000
     15474      5131  TIP3      H2            -17.8224109150       -9.6827079478       15.3844878088  SOLV      5120            0.0000000000
     15475      5132  TIP3      OH2           -19.3600764201       -7.4562985769       17.9250409380  SOLV      5121            0.0000000000
     15476      5132  TIP3      H1            -20.0757737103       -6.9865724724       18.4062744189  SOLV      5121            0.0000000000
     15477      5132  TIP3      H2            -19.8755632378       -7.8872670537       17.2025323947  SOLV      5121            0.0000000000
     15478      5133  TIP3      OH2           -18.9165042469      -15.3051636020        8.0738402707  SOLV      5122            0.0000000000
     15479      5133  TIP3      H1            -19.6358171586      -15.2654491230        7.4009517126  SOLV      5122            0.0000000000
     15480      5133  TIP3      H2            -19.1836055447      -14.5392032136        8.6294462449  SOLV      5122            0.0000000000
     15481      5134  TIP3      OH2           -20.1340034597      -18.6191597809        7.5604999590  SOLV      5123            0.0000000000
     15482      5134  TIP3      H1            -20.7188993961      -18.1906127622        6.9236099340  SOLV      5123            0.0000000000
     15483      5134  TIP3      H2            -20.3938447733      -19.5582119585        7.4536141019  SOLV      5123            0.0000000000
     15484      5135  TIP3      OH2           -20.1557935174      -15.7645269397       13.0874742952  SOLV      5124            0.0000000000
     15485      5135  TIP3      H1            -20.1239173832      -16.7315837838       13.0446310238  SOLV      5124            0.0000000000
     15486      5135  TIP3      H2            -20.3217930808      -15.6063674244       14.0459167916  SOLV      5124            0.0000000000
     15487      5136  TIP3      OH2           -33.8730096568      -15.3173994957       20.7261500660  SOLV      5125            0.0000000000
     15488      5136  TIP3      H1            -33.9669422627      -15.3247413955       19.7558776844  SOLV      5125            0.0000000000
     15489      5136  TIP3      H2            -32.9078097773      -15.1683229991       20.8304289311  SOLV      5125            0.0000000000
     15490      5137  TIP3      OH2           -17.2711958302      -11.5500595767       21.6970516300  SOLV      5126            0.0000000000
     15491      5137  TIP3      H1            -16.5529515343      -12.2009985399       21.5416594769  SOLV      5126            0.0000000000
     15492      5137  TIP3      H2            -17.0877844117      -10.8691528203       21.0278605240  SOLV      5126            0.0000000000
     15493      5138  TIP3      OH2           -15.4510337272      -13.5735876489       21.7052962267  SOLV      5127            0.0000000000
     15494      5138  TIP3      H1            -16.1916502629      -14.0388914539       22.1506761900  SOLV      5127            0.0000000000
     15495      5138  TIP3      H2            -14.7157611893      -14.1905138584       21.9051152108  SOLV      5127            0.0000000000
     15496      5139  TIP3      OH2           -20.7598882073      -21.3003265910        7.3638078531  SOLV      5128            0.0000000000
     15497      5139  TIP3      H1            -20.1067805570      -21.5722959889        8.0377003275  SOLV      5128            0.0000000000
     15498      5139  TIP3      H2            -21.5623323208      -21.7966587339        7.6111874276  SOLV      5128            0.0000000000
     15499      5140  TIP3      OH2           -20.1975124830      -18.6430835073       12.0266476208  SOLV      5129            0.0000000000
     15500      5140  TIP3      H1            -19.7816550864      -19.5281065446       12.1522360116  SOLV      5129            0.0000000000
     15501      5140  TIP3      H2            -19.6191062532      -18.2810623188       11.3348946870  SOLV      5129            0.0000000000
     15502      5141  TIP3      OH2           -18.5954867761      -16.9840710935       17.0183777222  SOLV      5130            0.0000000000
     15503      5141  TIP3      H1            -17.7507361873      -16.7270901495       16.5847007040  SOLV      5130            0.0000000000
     15504      5141  TIP3      H2            -18.4573217846      -16.5569021844       17.8865346669  SOLV      5130            0.0000000000
     15505      5142  TIP3      OH2           -17.8708880713      -15.4564835056       19.2777682041  SOLV      5131            0.0000000000
     15506      5142  TIP3      H1            -18.6475633947      -15.1108518219       19.7573289251  SOLV      5131            0.0000000000
     15507      5142  TIP3      H2            -17.5452913464      -14.6417970608       18.8327844303  SOLV      5131            0.0000000000
     15508      5143  TIP3      OH2           -31.7958522452      -18.0861942147       26.8401391535  SOLV      5132            0.0000000000
     15509      5143  TIP3      H1            -30.8590383231      -18.0103506267       27.0958248979  SOLV      5132            0.0000000000
     15510      5143  TIP3      H2            -32.1289649959      -18.6881480497       27.5233569951  SOLV      5132            0.0000000000
     15511      5144  TIP3      OH2           -13.3559139343      -19.4864941649       24.8152454137  SOLV      5133            0.0000000000
     15512      5144  TIP3      H1            -12.7521068714      -20.1290357690       24.3843311271  SOLV      5133            0.0000000000
     15513      5144  TIP3      H2            -13.6979844094      -18.9863211531       24.0411176735  SOLV      5133            0.0000000000
     15514      5145  TIP3      OH2           -19.0727401561      -21.1400185709       12.3847840858  SOLV      5134            0.0000000000
     15515      5145  TIP3      H1            -18.6227980404      -21.2937597168       13.2415562699  SOLV      5134            0.0000000000
     15516      5145  TIP3      H2            -19.7108645858      -21.8831388162       12.3805604741  SOLV      5134            0.0000000000
     15517      5146  TIP3      OH2           -32.0385924331      -21.1631299569       19.7184241356  SOLV      5135            0.0000000000
     15518      5146  TIP3      H1            -31.7568097754      -21.8492999653       20.3394014791  SOLV      5135            0.0000000000
     15519      5146  TIP3      H2            -31.3612548049      -20.4830000860       19.8591167986  SOLV      5135            0.0000000000
     15520      5147  TIP3      OH2           -33.8934760409      -18.0171054171       21.4130562530  SOLV      5136            0.0000000000
     15521      5147  TIP3      H1            -33.3709599241      -18.2173910714       20.6144762809  SOLV      5136            0.0000000000
     15522      5147  TIP3      H2            -34.0095326936      -17.0492452101       21.3007813684  SOLV      5136            0.0000000000
     15523      5148  TIP3      OH2           -14.7177895267      -18.1893933818       22.8760913738  SOLV      5137            0.0000000000
     15524      5148  TIP3      H1            -15.5493869514      -17.7184198553       23.0916892721  SOLV      5137            0.0000000000
     15525      5148  TIP3      H2            -15.0804177860      -18.8998294791       22.3086290292  SOLV      5137            0.0000000000
     15526      5149  TIP3      OH2           -18.3534641608      -21.8401046250        8.7901983595  SOLV      5138            0.0000000000
     15527      5149  TIP3      H1            -17.9665061989      -22.5178632885        8.1982811482  SOLV      5138            0.0000000000
     15528      5149  TIP3      H2            -17.7014862495      -21.1150235345        8.7391407321  SOLV      5138            0.0000000000
     15529      5150  TIP3      OH2           -22.9074084421       -5.8521772291       11.1886124168  SOLV      5139            0.0000000000
     15530      5150  TIP3      H1            -22.4690705818       -6.4120695792       10.5277171301  SOLV      5139            0.0000000000
     15531      5150  TIP3      H2            -22.3805578411       -6.0429170940       11.9747525357  SOLV      5139            0.0000000000
     15532      5151  TIP3      OH2           -31.8667233700       -8.3461788639       25.3348155732  SOLV      5140            0.0000000000
     15533      5151  TIP3      H1            -32.1122111881       -9.2314101586       25.0277891298  SOLV      5140            0.0000000000
     15534      5151  TIP3      H2            -31.6950965114       -8.5006922896       26.2835971281  SOLV      5140            0.0000000000
     15535      5152  TIP3      OH2           -29.8316460590       -8.0497892800       20.7372855646  SOLV      5141            0.0000000000
     15536      5152  TIP3      H1            -30.2747745348       -7.2706301883       20.3373015102  SOLV      5141            0.0000000000
     15537      5152  TIP3      H2            -28.9640161558       -7.9433522403       20.2907243538  SOLV      5141            0.0000000000
     15538      5153  TIP3      OH2           -25.3000707915       -5.4731453841       22.0861857712  SOLV      5142            0.0000000000
     15539      5153  TIP3      H1            -24.9118727225       -5.5510337915       22.9802914242  SOLV      5142            0.0000000000
     15540      5153  TIP3      H2            -24.8540549163       -4.6558706134       21.7780293373  SOLV      5142            0.0000000000
     15541      5154  TIP3      OH2           -15.6937762974      -20.5471111699       21.7076416763  SOLV      5143            0.0000000000
     15542      5154  TIP3      H1            -16.5839623699      -20.6202716194       21.3215751657  SOLV      5143            0.0000000000
     15543      5154  TIP3      H2            -15.3645535909      -21.4702664262       21.6104106727  SOLV      5143            0.0000000000
     15544      5155  TIP3      OH2           -33.0777674661       -5.5928048021       21.0620382399  SOLV      5144            0.0000000000
     15545      5155  TIP3      H1            -33.9329033961       -5.4140626527       20.6518321393  SOLV      5144            0.0000000000
     15546      5155  TIP3      H2            -33.1159992292       -5.0423337479       21.8585795852  SOLV      5144            0.0000000000
     15547      5156  TIP3      OH2           -30.7130402313       -5.7400938570       19.5817392557  SOLV      5145            0.0000000000
     15548      5156  TIP3      H1            -31.5839822363       -5.6057336343       20.0117230144  SOLV      5145            0.0000000000
     15549      5156  TIP3      H2            -30.9076945437       -5.5370587699       18.6451186120  SOLV      5145            0.0000000000
     15550      5157  TIP3      OH2           -26.5311316006       -5.5375767754       17.6391096363  SOLV      5146            0.0000000000
     15551      5157  TIP3      H1            -27.1050511656       -5.2919390454       16.8959878198  SOLV      5146            0.0000000000
     15552      5157  TIP3      H2            -26.3660893333       -4.6678773782       18.0674259777  SOLV      5146            0.0000000000
     15553      5158  TIP3      OH2           -23.8032278456       -6.1787570030       18.1236891393  SOLV      5147            0.0000000000
     15554      5158  TIP3      H1            -24.7313408673       -5.9547465325       17.9186149398  SOLV      5147            0.0000000000
     15555      5158  TIP3      H2            -23.3304476975       -5.4122892067       17.7646247032  SOLV      5147            0.0000000000
     15556      5159  TIP3      OH2           -21.7052903933       -4.1421017586       17.2129120367  SOLV      5148            0.0000000000
     15557      5159  TIP3      H1            -21.8860066995       -3.3292815151       16.6982257450  SOLV      5148            0.0000000000
     15558      5159  TIP3      H2            -21.4674705207       -4.7784416266       16.5022310665  SOLV      5148            0.0000000000
     15559      5160  TIP3      OH2           -33.9456994045       -7.5929521273       18.4338569588  SOLV      5149            0.0000000000
     15560      5160  TIP3      H1            -33.7485877963       -7.8804817260       19.3484412008  SOLV      5149            0.0000000000
     15561      5160  TIP3      H2            -33.2262068616       -8.0577872698       17.9510414656  SOLV      5149            0.0000000000
     15562      5161  TIP3      OH2           -31.9877571592       -8.8632076069       17.0496593522  SOLV      5150            0.0000000000
     15563      5161  TIP3      H1            -31.8488902551       -9.7093684207       17.5358577956  SOLV      5150            0.0000000000
     15564      5161  TIP3      H2            -31.0731082524       -8.5070839187       17.0226687125  SOLV      5150            0.0000000000
     15565      5162  TIP3      OH2           -29.3574239757       -7.9498077536       17.0990801009  SOLV      5151            0.0000000000
     15566      5162  TIP3      H1            -29.0080885729       -8.8409479311       16.9310545525  SOLV      5151            0.0000000000
     15567      5162  TIP3      H2            -28.8426297073       -7.7189661544       17.8972500298  SOLV      5151            0.0000000000
     15568      5163  TIP3      OH2           -23.5814175793      -21.3667919540       17.9693686586  SOLV      5152            0.0000000000
     15569      5163  TIP3      H1            -24.0424626173      -22.0959170583       18.4212205261  SOLV      5152            0.0000000000
     15570      5163  TIP3      H2            -22.8684305865      -21.8297724158       17.4880698574  SOLV      5152            0.0000000000
     15571      5164  TIP3      OH2           -18.4501617457      -22.5955982361       16.9397219093  SOLV      5153            0.0000000000
     15572      5164  TIP3      H1            -18.0898414754      -22.0636808255       16.1958739495  SOLV      5153            0.0000000000
     15573      5164  TIP3      H2            -19.4003751615      -22.3801639879       16.8926437391  SOLV      5153            0.0000000000
     15574      5165  TIP3      OH2           -17.4712036545      -21.6259358731       14.5807105562  SOLV      5154            0.0000000000
     15575      5165  TIP3      H1            -16.7188424507      -22.1252158888       14.2003370013  SOLV      5154            0.0000000000
     15576      5165  TIP3      H2            -17.1444387636      -20.7051277928       14.4479528720  SOLV      5154            0.0000000000
     15577      5166  TIP3      OH2           -26.5697848753      -23.6854515425       16.9251127035  SOLV      5155            0.0000000000
     15578      5166  TIP3      H1            -26.0545678421      -23.1950300097       16.2609779022  SOLV      5155            0.0000000000
     15579      5166  TIP3      H2            -26.1751197134      -23.3833724655       17.7589651275  SOLV      5155            0.0000000000
     15580      5167  TIP3      OH2           -21.2940205947      -22.5075537900       16.6948161987  SOLV      5156            0.0000000000
     15581      5167  TIP3      H1            -21.2812822242      -22.9115768106       15.8177482145  SOLV      5156            0.0000000000
     15582      5167  TIP3      H2            -21.4063615233      -23.2981352994       17.2742719674  SOLV      5156            0.0000000000
     15583      5168  TIP3      OH2           -20.9405285179      -23.2414658300       12.3406639169  SOLV      5157            0.0000000000
     15584      5168  TIP3      H1            -21.7889172941      -22.7926259705       12.5262081191  SOLV      5157            0.0000000000
     15585      5168  TIP3      H2            -21.0945606232      -24.1065559043       12.7771054937  SOLV      5157            0.0000000000
     15586      5169  TIP3      OH2           -36.2012025193       -9.7890389870       12.3211569577  SOLV      5158            0.0000000000
     15587      5169  TIP3      H1            -36.8159520542      -10.2688580197       11.7623291401  SOLV      5158            0.0000000000
     15588      5169  TIP3      H2            -36.2396932737       -8.8952802940       11.9160446199  SOLV      5158            0.0000000000
     15589      5170  TIP3      OH2           -31.9034205704      -23.6749604123       11.7656644767  SOLV      5159            0.0000000000
     15590      5170  TIP3      H1            -31.5190857481      -24.5268220895       11.4901175488  SOLV      5159            0.0000000000
     15591      5170  TIP3      H2            -31.2553519069      -23.3469554902       12.4173583398  SOLV      5159            0.0000000000
     15592      5171  TIP3      OH2           -26.9500799347      -22.2101726148       13.1353959963  SOLV      5160            0.0000000000
     15593      5171  TIP3      H1            -26.3773305775      -22.6949120352       13.7524923195  SOLV      5160            0.0000000000
     15594      5171  TIP3      H2            -26.7301100104      -21.2870754982       13.3959252003  SOLV      5160            0.0000000000
     15595      5172  TIP3      OH2           -28.4235265990       -7.9916087820        8.0784160453  SOLV      5161            0.0000000000
     15596      5172  TIP3      H1            -27.5057213715       -7.8188502686        7.7778018533  SOLV      5161            0.0000000000
     15597      5172  TIP3      H2            -28.6077090851       -8.7989757308        7.5493035202  SOLV      5161            0.0000000000
     15598      5173  TIP3      OH2           -21.1080675140       -6.8931310696        9.0388616431  SOLV      5162            0.0000000000
     15599      5173  TIP3      H1            -21.1997102987       -7.8684600232        8.9373135840  SOLV      5162            0.0000000000
     15600      5173  TIP3      H2            -21.6143664005       -6.5737054217        8.2669242050  SOLV      5162            0.0000000000
     15601      5174  TIP3      OH2            27.8355314135       35.7885506748       -0.8603041606  SOLV      5163            0.0000000000
     15602      5174  TIP3      H1             27.4963799273       34.9809122728       -1.2766089944  SOLV      5163            0.0000000000
     15603      5174  TIP3      H2             28.7776131245       35.5414715926       -0.7218452339  SOLV      5163            0.0000000000
     15604      5175  TIP3      OH2           -26.3842531523      -21.7622894714       27.8748859782  SOLV      5164            0.0000000000
     15605      5175  TIP3      H1            -25.5822610857      -21.7883301846       27.3157868207  SOLV      5164            0.0000000000
     15606      5175  TIP3      H2            -26.0702719261      -22.1984531301       28.6755083825  SOLV      5164            0.0000000000
     15607      5176  TIP3      OH2           -35.3253176323       -9.6956369787        8.7617717334  SOLV      5165            0.0000000000
     15608      5176  TIP3      H1            -35.1517008282       -9.3918885989        9.6614874695  SOLV      5165            0.0000000000
     15609      5176  TIP3      H2            -34.4697515896      -10.1322603529        8.5281222340  SOLV      5165            0.0000000000
     15610      5177  TIP3      OH2           -18.2725351784      -20.9181967690       26.0639656504  SOLV      5166            0.0000000000
     15611      5177  TIP3      H1            -18.0838576333      -21.1936136441       26.9823423456  SOLV      5166            0.0000000000
     15612      5177  TIP3      H2            -17.3805227327      -20.9439885759       25.6563401189  SOLV      5166            0.0000000000
     15613      5178  TIP3      OH2           -18.9550668989       -5.5116252650       21.0242647263  SOLV      5167            0.0000000000
     15614      5178  TIP3      H1            -19.7257070669       -5.7492822607       20.4643428819  SOLV      5167            0.0000000000
     15615      5178  TIP3      H2            -19.0318631938       -4.5280290537       20.9977704131  SOLV      5167            0.0000000000
     15616      5179  TIP3      OH2            -6.2829635963      -11.7051253633        8.5704070848  SOLV      5168            0.0000000000
     15617      5179  TIP3      H1             -6.5526555932      -10.7807881554        8.3960822285  SOLV      5168            0.0000000000
     15618      5179  TIP3      H2             -7.0742432870      -12.1743184090        8.2554344050  SOLV      5168            0.0000000000
     15619      5180  TIP3      OH2            -6.3718883636      -11.6526713744       12.4796006384  SOLV      5169            0.0000000000
     15620      5180  TIP3      H1             -5.9411370366      -11.8387179003       13.3344968404  SOLV      5169            0.0000000000
     15621      5180  TIP3      H2             -6.7686754271      -12.5089660293       12.2587347619  SOLV      5169            0.0000000000
     15622      5181  TIP3      OH2           -13.2733129868      -12.7329359289       16.0555158280  SOLV      5170            0.0000000000
     15623      5181  TIP3      H1            -12.9808082353      -13.4222033154       16.6785857303  SOLV      5170            0.0000000000
     15624      5181  TIP3      H2            -12.5224694503      -12.1244830013       16.0813323290  SOLV      5170            0.0000000000
     15625      5182  TIP3      OH2           -13.5357822929       -8.5906608356       13.2904953930  SOLV      5171            0.0000000000
     15626      5182  TIP3      H1            -13.6260969336       -9.5651800841       13.3130761738  SOLV      5171            0.0000000000
     15627      5182  TIP3      H2            -12.5698594846       -8.4974536361       13.1965758423  SOLV      5171            0.0000000000
     15628      5183  TIP3      OH2           -16.4749557259      -16.6209471138       11.0853225573  SOLV      5172            0.0000000000
     15629      5183  TIP3      H1            -16.9184946791      -15.7916983167       11.3494674999  SOLV      5172            0.0000000000
     15630      5183  TIP3      H2            -17.2256894790      -17.0804575325       10.6650699251  SOLV      5172            0.0000000000
     15631      5184  TIP3      OH2           -15.9246308792      -13.6985233115       12.9371260092  SOLV      5173            0.0000000000
     15632      5184  TIP3      H1            -15.4080825137      -14.4721574550       13.2529531772  SOLV      5173            0.0000000000
     15633      5184  TIP3      H2            -15.2907139823      -13.2391996983       12.3698965172  SOLV      5173            0.0000000000
     15634      5185  TIP3      OH2            -7.3402901195       -4.0467570742        9.4403479774  SOLV      5174            0.0000000000
     15635      5185  TIP3      H1             -6.8912972269       -4.7320837611        8.9065894370  SOLV      5174            0.0000000000
     15636      5185  TIP3      H2             -7.3666336083       -4.4631712524       10.3129884005  SOLV      5174            0.0000000000
     15637      5186  TIP3      OH2            -8.2961841389       -9.3831711111       12.9274236214  SOLV      5175            0.0000000000
     15638      5186  TIP3      H1             -7.8229311825      -10.1386777509       12.5342773307  SOLV      5175            0.0000000000
     15639      5186  TIP3      H2             -7.5143751171       -8.8364465676       13.1549470126  SOLV      5175            0.0000000000
     15640      5187  TIP3      OH2             1.9474241594      -16.1769413969       12.9003145274  SOLV      5176            0.0000000000
     15641      5187  TIP3      H1              2.1797330364      -15.3371748391       13.3519216377  SOLV      5176            0.0000000000
     15642      5187  TIP3      H2              1.7704641273      -15.8690010608       11.9985657406  SOLV      5176            0.0000000000
     15643      5188  TIP3      OH2            -4.1506360045      -14.4187102051       13.2090694170  SOLV      5177            0.0000000000
     15644      5188  TIP3      H1             -3.7490695824      -15.2836927961       13.4072894678  SOLV      5177            0.0000000000
     15645      5188  TIP3      H2             -4.5041435695      -14.5761678800       12.3123871850  SOLV      5177            0.0000000000
     15646      5189  TIP3      OH2           -10.7234382180      -17.7997066478       12.8465999763  SOLV      5178            0.0000000000
     15647      5189  TIP3      H1            -10.9400988077      -17.0612034772       12.2387287234  SOLV      5178            0.0000000000
     15648      5189  TIP3      H2            -11.2409549357      -18.5201387649       12.4252308042  SOLV      5178            0.0000000000
     15649      5190  TIP3      OH2            -3.8004122182      -16.8581971111        9.0747530370  SOLV      5179            0.0000000000
     15650      5190  TIP3      H1             -3.0911775305      -17.0042002919        9.7414036229  SOLV      5179            0.0000000000
     15651      5190  TIP3      H2             -3.2722362692      -16.4920863208        8.3406197393  SOLV      5179            0.0000000000
     15652      5191  TIP3      OH2           -14.4473290651      -15.7738571688       13.9451710167  SOLV      5180            0.0000000000
     15653      5191  TIP3      H1            -13.6250785912      -15.9380164448       14.4430037329  SOLV      5180            0.0000000000
     15654      5191  TIP3      H2            -14.2802564645      -16.3258426558       13.1521027730  SOLV      5180            0.0000000000
     15655      5192  TIP3      OH2           -10.0522237594      -13.8013322068       11.8911415384  SOLV      5181            0.0000000000
     15656      5192  TIP3      H1             -9.1076586744      -14.0379188046       12.0120598812  SOLV      5181            0.0000000000
     15657      5192  TIP3      H2            -10.4306925886      -14.6460920671       11.5694528336  SOLV      5181            0.0000000000
     15658      5193  TIP3      OH2             2.6085798010      -14.0280741519       14.5163889087  SOLV      5182            0.0000000000
     15659      5193  TIP3      H1              1.7490612770      -13.5822154762       14.3519314712  SOLV      5182            0.0000000000
     15660      5193  TIP3      H2              2.7560655069      -13.7810039862       15.4430865324  SOLV      5182            0.0000000000
     15661      5194  TIP3      OH2           -10.8239254430      -17.9502842603       17.2314500803  SOLV      5183            0.0000000000
     15662      5194  TIP3      H1            -11.4040388061      -17.5621510462       16.5485151448  SOLV      5183            0.0000000000
     15663      5194  TIP3      H2            -11.3597170384      -17.7710551708       18.0330734418  SOLV      5183            0.0000000000
     15664      5195  TIP3      OH2            -7.3007640420       -9.4629009534        7.2196019173  SOLV      5184            0.0000000000
     15665      5195  TIP3      H1             -7.6997565332       -9.5860194394        6.3424697626  SOLV      5184            0.0000000000
     15666      5195  TIP3      H2             -7.7743927138       -8.6549505798        7.5115009265  SOLV      5184            0.0000000000
     15667      5196  TIP3      OH2            -9.7528938225      -10.1855020870       15.1267650630  SOLV      5185            0.0000000000
     15668      5196  TIP3      H1            -10.3365697069       -9.4774193487       15.4810320580  SOLV      5185            0.0000000000
     15669      5196  TIP3      H2             -9.3197900509       -9.7264203864       14.3747182719  SOLV      5185            0.0000000000
     15670      5197  TIP3      OH2            -1.7741475714      -16.8267404054       10.9085107514  SOLV      5186            0.0000000000
     15671      5197  TIP3      H1             -2.0928403874      -17.1588280384       11.7613129343  SOLV      5186            0.0000000000
     15672      5197  TIP3      H2             -1.3085038756      -16.0085984662       11.1707071213  SOLV      5186            0.0000000000
     15673      5198  TIP3      OH2           -12.0837918328      -16.8058034953       15.0466233344  SOLV      5187            0.0000000000
     15674      5198  TIP3      H1            -11.4825002687      -16.0679535115       15.2977007202  SOLV      5187            0.0000000000
     15675      5198  TIP3      H2            -11.5755768438      -17.1937640750       14.2996571119  SOLV      5187            0.0000000000
     15676      5199  TIP3      OH2           -11.4380574236       -8.2069091710       16.1405837916  SOLV      5188            0.0000000000
     15677      5199  TIP3      H1            -11.6793211680       -7.3307275487       15.7735417195  SOLV      5188            0.0000000000
     15678      5199  TIP3      H2            -12.2447592798       -8.3764614814       16.6753642459  SOLV      5188            0.0000000000
     15679      5200  TIP3      OH2           -17.5555157334      -11.3526725605        8.4885853239  SOLV      5189            0.0000000000
     15680      5200  TIP3      H1            -17.9694950606      -11.0459157471        7.6606141477  SOLV      5189            0.0000000000
     15681      5200  TIP3      H2            -17.2514710088      -10.4948885253        8.8662574516  SOLV      5189            0.0000000000
     15682      5201  TIP3      OH2            -0.2099822129      -17.2081561227       14.5489663470  SOLV      5190            0.0000000000
     15683      5201  TIP3      H1             -1.1004761723      -16.9698282922       14.2368760523  SOLV      5190            0.0000000000
     15684      5201  TIP3      H2              0.3585652418      -16.8789658183       13.8272379569  SOLV      5190            0.0000000000
     15685      5202  TIP3      OH2            -7.2985302221      -20.7995913135       14.4099518246  SOLV      5191            0.0000000000
     15686      5202  TIP3      H1             -7.4886122839      -21.7425064138       14.5760750000  SOLV      5191            0.0000000000
     15687      5202  TIP3      H2             -8.0600702404      -20.3833663789       14.8712287160  SOLV      5191            0.0000000000
     15688      5203  TIP3      OH2            -6.1831922375       -5.7403536038        7.5563984751  SOLV      5192            0.0000000000
     15689      5203  TIP3      H1             -5.6495848219       -6.5467946946        7.3692518154  SOLV      5192            0.0000000000
     15690      5203  TIP3      H2             -5.5458716693       -5.0617587227        7.2287452832  SOLV      5192            0.0000000000
     15691      5204  TIP3      OH2            -4.6667447863       -7.8671092604        6.7883596168  SOLV      5193            0.0000000000
     15692      5204  TIP3      H1             -5.1638306886       -8.6743413016        6.5940630552  SOLV      5193            0.0000000000
     15693      5204  TIP3      H2             -4.0092250592       -8.1582817545        7.4372228367  SOLV      5193            0.0000000000
     15694      5205  TIP3      OH2            -0.8829193609       -7.0878152339       14.2718647974  SOLV      5194            0.0000000000
     15695      5205  TIP3      H1             -1.0366586477       -7.8443259743       13.6586517288  SOLV      5194            0.0000000000
     15696      5205  TIP3      H2             -1.1383359744       -6.3327842829       13.6982015250  SOLV      5194            0.0000000000
     15697      5206  TIP3      OH2            -8.0027814625      -13.1745106313        6.9343219655  SOLV      5195            0.0000000000
     15698      5206  TIP3      H1             -8.7923929776      -12.6119470374        6.7722241973  SOLV      5195            0.0000000000
     15699      5206  TIP3      H2             -7.5419852243      -13.1060815928        6.0813847298  SOLV      5195            0.0000000000
     15700      5207  TIP3      OH2            -8.3919604028      -15.3201061588        4.0909209314  SOLV      5196            0.0000000000
     15701      5207  TIP3      H1             -7.7831068189      -14.7577854049        4.6027819782  SOLV      5196            0.0000000000
     15702      5207  TIP3      H2             -7.7491077323      -15.8765816979        3.6032249582  SOLV      5196            0.0000000000
     15703      5208  TIP3      OH2             1.0094626184      -10.6007955423       12.9333747868  SOLV      5197            0.0000000000
     15704      5208  TIP3      H1              0.1563317371      -10.1084829605       12.8451057972  SOLV      5197            0.0000000000
     15705      5208  TIP3      H2              1.3442900957      -10.5048407297       12.0109517427  SOLV      5197            0.0000000000
     15706      5209  TIP3      OH2            -4.4728180678      -12.3517554623        6.6411439491  SOLV      5198            0.0000000000
     15707      5209  TIP3      H1             -5.0342032190      -12.1249145478        7.4207798594  SOLV      5198            0.0000000000
     15708      5209  TIP3      H2             -3.6190514126      -12.5468634708        7.0826631705  SOLV      5198            0.0000000000
     15709      5210  TIP3      OH2            -2.1678104331      -11.9340204757       15.7807456971  SOLV      5199            0.0000000000
     15710      5210  TIP3      H1             -2.2184856751      -11.0916640248       16.2693114686  SOLV      5199            0.0000000000
     15711      5210  TIP3      H2             -2.9962654086      -11.8816213955       15.2621693517  SOLV      5199            0.0000000000
     15712      5211  TIP3      OH2           -12.1825253512      -12.3884523878       10.8175527426  SOLV      5200            0.0000000000
     15713      5211  TIP3      H1            -12.5166163778      -12.9523835750       10.0944938216  SOLV      5200            0.0000000000
     15714      5211  TIP3      H2            -11.3966965333      -12.8861952830       11.1283407314  SOLV      5200            0.0000000000
     15715      5212  TIP3      OH2           -10.8771332680       -8.2618701586       12.2997050122  SOLV      5201            0.0000000000
     15716      5212  TIP3      H1            -11.0521833872       -8.5330585474       11.3853756902  SOLV      5201            0.0000000000
     15717      5212  TIP3      H2             -9.9785283391       -8.6183153448       12.4575081197  SOLV      5201            0.0000000000
     15718      5213  TIP3      OH2           -10.7687958665      -12.6297263539       14.3532283142  SOLV      5202            0.0000000000
     15719      5213  TIP3      H1            -10.4535433228      -12.8478615743       13.4529662097  SOLV      5202            0.0000000000
     15720      5213  TIP3      H2            -10.3632666957      -11.7516909789       14.5202531231  SOLV      5202            0.0000000000
     15721      5214  TIP3      OH2            -6.2270331064       -6.1392002048       12.1645400986  SOLV      5203            0.0000000000
     15722      5214  TIP3      H1             -5.7094038233       -5.4317423699       12.5771158935  SOLV      5203            0.0000000000
     15723      5214  TIP3      H2             -5.9151429221       -6.9364106108       12.6236377847  SOLV      5203            0.0000000000
     15724      5215  TIP3      OH2            -9.4245075233       -7.0756626476       17.6388945586  SOLV      5204            0.0000000000
     15725      5215  TIP3      H1            -10.0547986702       -6.4516229835       18.0619095853  SOLV      5204            0.0000000000
     15726      5215  TIP3      H2            -10.0480237972       -7.5924512261       17.0865391795  SOLV      5204            0.0000000000
     15727      5216  TIP3      OH2            -6.0989923507      -13.7466600063        4.9003082593  SOLV      5205            0.0000000000
     15728      5216  TIP3      H1             -5.5207244787      -13.1142208044        5.3821059248  SOLV      5205            0.0000000000
     15729      5216  TIP3      H2             -5.8416546198      -13.5584169218        3.9640106690  SOLV      5205            0.0000000000
     15730      5217  TIP3      OH2           -11.8585314559      -11.5661120088       18.6785962823  SOLV      5206            0.0000000000
     15731      5217  TIP3      H1            -11.8082040751      -10.6580624401       19.0431496703  SOLV      5206            0.0000000000
     15732      5217  TIP3      H2            -12.8122787257      -11.7489079865       18.8176077077  SOLV      5206            0.0000000000
     15733      5218  TIP3      OH2            -8.6002901226       -7.0347539054        7.4959110988  SOLV      5207            0.0000000000
     15734      5218  TIP3      H1             -7.7836375946       -6.5116617665        7.6414642747  SOLV      5207            0.0000000000
     15735      5218  TIP3      H2             -9.2953613507       -6.4352717859        7.7905427482  SOLV      5207            0.0000000000
     15736      5219  TIP3      OH2           -11.4821507886       -5.4112063793       18.4850544304  SOLV      5208            0.0000000000
     15737      5219  TIP3      H1            -11.8226830425       -5.3347261134       17.5722174073  SOLV      5208            0.0000000000
     15738      5219  TIP3      H2            -12.2951775685       -5.6398851159       18.9900486811  SOLV      5208            0.0000000000
     15739      5220  TIP3      OH2            -0.9344594090      -21.3572382152        5.4149298996  SOLV      5209            0.0000000000
     15740      5220  TIP3      H1             -1.7557392167      -21.1162204285        5.8909362537  SOLV      5209            0.0000000000
     15741      5220  TIP3      H2             -0.7667996847      -20.5359501760        4.9044680481  SOLV      5209            0.0000000000
     15742      5221  TIP3      OH2           -13.4566819834      -13.9669276351        8.6839089426  SOLV      5210            0.0000000000
     15743      5221  TIP3      H1            -14.1392071985      -13.4518121836        8.1982630835  SOLV      5210            0.0000000000
     15744      5221  TIP3      H2            -14.0020778858      -14.6289090339        9.1206458261  SOLV      5210            0.0000000000
     15745      5222  TIP3      OH2            -2.9079751464       -7.7787087917        0.9584167610  SOLV      5211            0.0000000000
     15746      5222  TIP3      H1             -2.7531375839       -6.8363625971        0.7366512687  SOLV      5211            0.0000000000
     15747      5222  TIP3      H2             -1.9984454456       -8.1295962897        0.8772496072  SOLV      5211            0.0000000000
     15748      5223  TIP3      OH2           -15.6899309657      -10.0499144673       17.9497753258  SOLV      5212            0.0000000000
     15749      5223  TIP3      H1            -16.3974610196      -10.1760036181       17.2758234735  SOLV      5212            0.0000000000
     15750      5223  TIP3      H2            -15.3433293018      -10.9531458392       18.0653826698  SOLV      5212            0.0000000000
     15751      5224  TIP3      OH2           -17.1667500160       -8.0945483219       14.2061451772  SOLV      5213            0.0000000000
     15752      5224  TIP3      H1            -16.2001192392       -8.0852426941       14.1877443718  SOLV      5213            0.0000000000
     15753      5224  TIP3      H2            -17.3561937989       -7.3199226878       14.7584928566  SOLV      5213            0.0000000000
     15754      5225  TIP3      OH2             1.4904887766       -3.5639669790       14.8702510132  SOLV      5214            0.0000000000
     15755      5225  TIP3      H1              1.4481761571       -4.5296308429       14.9962622539  SOLV      5214            0.0000000000
     15756      5225  TIP3      H2              0.6478291072       -3.2991210951       15.3053920968  SOLV      5214            0.0000000000
     15757      5226  TIP3      OH2            -7.4227874918       -5.8304818339       16.2340690532  SOLV      5215            0.0000000000
     15758      5226  TIP3      H1             -7.4869400394       -4.8880074845       16.5008208631  SOLV      5215            0.0000000000
     15759      5226  TIP3      H2             -8.1720760680       -6.2128431408       16.7413120017  SOLV      5215            0.0000000000
     15760      5227  TIP3      OH2           -15.4035167152       -6.0103787499        9.5041321257  SOLV      5216            0.0000000000
     15761      5227  TIP3      H1            -14.9674904893       -6.0589423113       10.3824489815  SOLV      5216            0.0000000000
     15762      5227  TIP3      H2            -16.0860485769       -6.6898698970        9.6005975415  SOLV      5216            0.0000000000
     15763      5228  TIP3      OH2            -6.6959293772       -5.3102213627        2.3721454315  SOLV      5217            0.0000000000
     15764      5228  TIP3      H1             -7.2589113406       -5.6981181486        1.6808946580  SOLV      5217            0.0000000000
     15765      5228  TIP3      H2             -7.3605144416       -5.0545738251        3.0312235680  SOLV      5217            0.0000000000
     15766      5229  TIP3      OH2            -7.7559884045       -4.9687350879        5.1441458744  SOLV      5218            0.0000000000
     15767      5229  TIP3      H1             -8.3866939718       -5.6086779280        5.4983158737  SOLV      5218            0.0000000000
     15768      5229  TIP3      H2             -6.9395710542       -5.2178567584        5.6018978238  SOLV      5218            0.0000000000
     15769      5230  TIP3      OH2             0.3852613182      -12.3185314173       17.5755012709  SOLV      5219            0.0000000000
     15770      5230  TIP3      H1             -0.4698544325      -12.1833976989       17.1390418875  SOLV      5219            0.0000000000
     15771      5230  TIP3      H2              0.5145986383      -13.2799941873       17.4614456461  SOLV      5219            0.0000000000
     15772      5231  TIP3      OH2           -13.6463069413       -8.2433926371       17.7521324851  SOLV      5220            0.0000000000
     15773      5231  TIP3      H1            -13.1825688832       -8.3908117637       18.5982705041  SOLV      5220            0.0000000000
     15774      5231  TIP3      H2            -14.4095984480       -8.8541253306       17.8331180086  SOLV      5220            0.0000000000
     15775      5232  TIP3      OH2            -9.6558291746      -20.0062050937       15.6975257036  SOLV      5221            0.0000000000
     15776      5232  TIP3      H1            -10.5378043784      -20.3039347765       15.3885913945  SOLV      5221            0.0000000000
     15777      5232  TIP3      H2             -9.9261791058      -19.2009076565       16.1834184331  SOLV      5221            0.0000000000
     15778      5233  TIP3      OH2            -4.3097865779      -18.8795835567       17.6240507577  SOLV      5222            0.0000000000
     15779      5233  TIP3      H1             -3.6275689254      -19.1428819888       18.2740567547  SOLV      5222            0.0000000000
     15780      5233  TIP3      H2             -5.1471388535      -19.0499970571       18.1020394692  SOLV      5222            0.0000000000
     15781      5234  TIP3      OH2            -1.9270266730      -14.5193993613       16.8349235500  SOLV      5223            0.0000000000
     15782      5234  TIP3      H1             -2.4781168904      -14.5556666685       17.6485004991  SOLV      5223            0.0000000000
     15783      5234  TIP3      H2             -2.1887511256      -13.6645676306       16.4393622298  SOLV      5223            0.0000000000
     15784      5235  TIP3      OH2            -5.3615327234      -13.4048570122        2.3275433982  SOLV      5224            0.0000000000
     15785      5235  TIP3      H1             -5.7046908429      -13.5745487302        1.4286524207  SOLV      5224            0.0000000000
     15786      5235  TIP3      H2             -4.6313588046      -12.7922814194        2.1259340764  SOLV      5224            0.0000000000
     15787      5236  TIP3      OH2            -8.4132000997      -19.4527198600        5.3134138193  SOLV      5225            0.0000000000
     15788      5236  TIP3      H1             -8.6235784042      -19.5139872332        6.2696180429  SOLV      5225            0.0000000000
     15789      5236  TIP3      H2             -8.7156233929      -20.3364598299        5.0227786319  SOLV      5225            0.0000000000
     15790      5237  TIP3      OH2           -10.3311028606      -14.8390269083       15.8538407114  SOLV      5226            0.0000000000
     15791      5237  TIP3      H1            -10.8449795052      -14.6271403156       16.6621398994  SOLV      5226            0.0000000000
     15792      5237  TIP3      H2            -10.4784358659      -14.0208909934       15.3235897929  SOLV      5226            0.0000000000
     15793      5238  TIP3      OH2           -11.4912133223      -15.9968871533       10.9807454461  SOLV      5227            0.0000000000
     15794      5238  TIP3      H1            -12.4192001929      -16.2383044528       11.1910836198  SOLV      5227            0.0000000000
     15795      5238  TIP3      H2            -11.4093492688      -16.3887822528       10.0845019186  SOLV      5227            0.0000000000
     15796      5239  TIP3      OH2            -6.6169761669      -15.1715537627        8.2643273312  SOLV      5228            0.0000000000
     15797      5239  TIP3      H1             -7.1102923276      -14.4373442760        7.8350666148  SOLV      5228            0.0000000000
     15798      5239  TIP3      H2             -6.0503445463      -15.4801520978        7.5313558327  SOLV      5228            0.0000000000
     15799      5240  TIP3      OH2            -4.8534603173      -12.4014935085       19.0927853738  SOLV      5229            0.0000000000
     15800      5240  TIP3      H1             -5.0785352228      -13.1077752132       19.7365038160  SOLV      5229            0.0000000000
     15801      5240  TIP3      H2             -3.9226409320      -12.2351372248       19.3314010342  SOLV      5229            0.0000000000
     15802      5241  TIP3      OH2            -5.1063406421      -14.8953239334       10.6870923844  SOLV      5230            0.0000000000
     15803      5241  TIP3      H1             -5.7007350828      -14.5462512488        9.9939460613  SOLV      5230            0.0000000000
     15804      5241  TIP3      H2             -4.7397694064      -15.6564129000       10.1914445731  SOLV      5230            0.0000000000
     15805      5242  TIP3      OH2           -12.1155444503      -14.5659977348       17.9245127616  SOLV      5231            0.0000000000
     15806      5242  TIP3      H1            -11.9395940683      -13.8785641708       18.5849489092  SOLV      5231            0.0000000000
     15807      5242  TIP3      H2            -12.2418279470      -15.3615849233       18.4753900640  SOLV      5231            0.0000000000
     15808      5243  TIP3      OH2           -16.2058517017      -19.4077978200       13.7544828873  SOLV      5232            0.0000000000
     15809      5243  TIP3      H1            -15.4895784070      -19.0371246880       14.3113214605  SOLV      5232            0.0000000000
     15810      5243  TIP3      H2            -15.7563307573      -19.6282380714       12.9290987484  SOLV      5232            0.0000000000
     15811      5244  TIP3      OH2           -16.5917901048      -19.5522045601        8.8321266701  SOLV      5233            0.0000000000
     15812      5244  TIP3      H1            -15.9389344436      -19.1942918263        8.2103960824  SOLV      5233            0.0000000000
     15813      5244  TIP3      H2            -17.1611562493      -18.7749148566        9.0090242327  SOLV      5233            0.0000000000
     15814      5245  TIP3      OH2            -4.9934103629      -12.4455296405       14.8495135841  SOLV      5234            0.0000000000
     15815      5245  TIP3      H1             -4.6136354413      -13.1293107100       14.2520574406  SOLV      5234            0.0000000000
     15816      5245  TIP3      H2             -5.2916051849      -13.0073784977       15.5949965242  SOLV      5234            0.0000000000
     15817      5246  TIP3      OH2            -8.1707067317      -17.8546346132       11.5751199406  SOLV      5235            0.0000000000
     15818      5246  TIP3      H1             -8.9990930198      -17.8180909055       12.0961988511  SOLV      5235            0.0000000000
     15819      5246  TIP3      H2             -7.4982833637      -17.7745329275       12.2711640646  SOLV      5235            0.0000000000
     15820      5247  TIP3      OH2           -13.8785294454      -17.1748695326       11.6477991241  SOLV      5236            0.0000000000
     15821      5247  TIP3      H1            -14.8253038111      -17.0871562698       11.3777035387  SOLV      5236            0.0000000000
     15822      5247  TIP3      H2            -13.6777003330      -18.1073419365       11.4525472743  SOLV      5236            0.0000000000
     15823      5248  TIP3      OH2           -11.2405881188      -17.2665865441        8.5230499697  SOLV      5237            0.0000000000
     15824      5248  TIP3      H1            -10.2770470826      -17.1267537350        8.4288308817  SOLV      5237            0.0000000000
     15825      5248  TIP3      H2            -11.5756980135      -17.1553994628        7.6131127740  SOLV      5237            0.0000000000
     15826      5249  TIP3      OH2            -3.2802988448      -17.0451736849       13.5756607757  SOLV      5238            0.0000000000
     15827      5249  TIP3      H1             -3.5472236125      -16.8911914630       14.5131824393  SOLV      5238            0.0000000000
     15828      5249  TIP3      H2             -4.0140225722      -17.6181491083       13.2841086714  SOLV      5238            0.0000000000
     15829      5250  TIP3      OH2           -12.7647403195      -17.3014607721        6.1006542535  SOLV      5239            0.0000000000
     15830      5250  TIP3      H1            -13.5940795602      -16.8290254845        6.2697255070  SOLV      5239            0.0000000000
     15831      5250  TIP3      H2            -12.2850406169      -16.6931619063        5.4971528021  SOLV      5239            0.0000000000
     15832      5251  TIP3      OH2            -1.5550968764       -0.1294431135       15.8253487821  SOLV      5240            0.0000000000
     15833      5251  TIP3      H1             -1.6225304564        0.1093967295       14.8824156219  SOLV      5240            0.0000000000
     15834      5251  TIP3      H2             -0.7723138859        0.3803867872       16.1043326995  SOLV      5240            0.0000000000
     15835      5252  TIP3      OH2           -12.0197778846       -9.0486520185       20.0108959246  SOLV      5241            0.0000000000
     15836      5252  TIP3      H1            -11.2359668359       -8.7220524518       20.4939616866  SOLV      5241            0.0000000000
     15837      5252  TIP3      H2            -12.6856329723       -9.0314231934       20.7259626185  SOLV      5241            0.0000000000
     15838      5253  TIP3      OH2            -7.4287749947      -14.5078743556       12.5543164260  SOLV      5242            0.0000000000
     15839      5253  TIP3      H1             -6.6356922873      -14.8294854920       12.0967447483  SOLV      5242            0.0000000000
     15840      5253  TIP3      H2             -7.3548568540      -14.9214103354       13.4337770048  SOLV      5242            0.0000000000
     15841      5254  TIP3      OH2           -12.2370949846      -19.6178405582       11.4189453707  SOLV      5243            0.0000000000
     15842      5254  TIP3      H1            -12.6053897652      -20.3748407402       11.9267480005  SOLV      5243            0.0000000000
     15843      5254  TIP3      H2            -11.8036600281      -20.0705744501       10.6832774474  SOLV      5243            0.0000000000
     15844      5255  TIP3      OH2            -7.6452109874      -15.4677854888       15.4714524638  SOLV      5244            0.0000000000
     15845      5255  TIP3      H1             -8.5496353647      -15.1141003300       15.5993217841  SOLV      5244            0.0000000000
     15846      5255  TIP3      H2             -7.0894452228      -14.8307047467       15.9630941731  SOLV      5244            0.0000000000
     15847      5256  TIP3      OH2           -10.2368006782      -11.6215967504        6.4422351833  SOLV      5245            0.0000000000
     15848      5256  TIP3      H1            -11.0145394937      -12.1844657866        6.2432066299  SOLV      5245            0.0000000000
     15849      5256  TIP3      H2            -10.4823550204      -11.2753785762        7.3354872743  SOLV      5245            0.0000000000
     15850      5257  TIP3      OH2            -1.3319961136       -9.2567207210       12.6956477777  SOLV      5246            0.0000000000
     15851      5257  TIP3      H1             -1.3806609671       -8.8722358320       11.7774781807  SOLV      5246            0.0000000000
     15852      5257  TIP3      H2             -2.1410397464       -9.8133876734       12.6618265326  SOLV      5246            0.0000000000
     15853      5258  TIP3      OH2            -5.7655925146      -18.5434421222        5.1533275709  SOLV      5247            0.0000000000
     15854      5258  TIP3      H1             -6.7420704549      -18.6352609795        5.1570891315  SOLV      5247            0.0000000000
     15855      5258  TIP3      H2             -5.6294964818      -17.5901861260        5.3374525114  SOLV      5247            0.0000000000
     15856      5259  TIP3      OH2            -6.2821924183       -8.4250516233       16.4020636765  SOLV      5248            0.0000000000
     15857      5259  TIP3      H1             -6.0071216454       -8.5108446171       17.3215586325  SOLV      5248            0.0000000000
     15858      5259  TIP3      H2             -6.6558761291       -7.5235136894       16.3782631886  SOLV      5248            0.0000000000
     15859      5260  TIP3      OH2            -5.0157316428      -16.0157486565        6.0820490568  SOLV      5249            0.0000000000
     15860      5260  TIP3      H1             -4.0592845110      -15.9102205132        6.2456715121  SOLV      5249            0.0000000000
     15861      5260  TIP3      H2             -5.2383330285      -15.1966016036        5.5922626491  SOLV      5249            0.0000000000
     15862      5261  TIP3      OH2           -13.3477372496      -11.3978117272       13.1554266994  SOLV      5250            0.0000000000
     15863      5261  TIP3      H1            -12.9508510719      -11.6821518208       12.3077034458  SOLV      5250            0.0000000000
     15864      5261  TIP3      H2            -12.8847566760      -11.9561965459       13.7977307145  SOLV      5250            0.0000000000
     15865      5262  TIP3      OH2            -8.8133230039      -10.0000706285        4.6949114474  SOLV      5251            0.0000000000
     15866      5262  TIP3      H1             -9.3333158883       -9.1995798610        4.5214860223  SOLV      5251            0.0000000000
     15867      5262  TIP3      H2             -9.4050060795      -10.5274119873        5.2730589936  SOLV      5251            0.0000000000
     15868      5263  TIP3      OH2           -14.4769901754      -12.2654246994       19.2868252573  SOLV      5252            0.0000000000
     15869      5263  TIP3      H1            -14.3947249147      -12.3773894376       20.2535571419  SOLV      5252            0.0000000000
     15870      5263  TIP3      H2            -15.2453756286      -12.8305663644       19.0918816668  SOLV      5252            0.0000000000
     15871      5264  TIP3      OH2            -7.2568461031      -11.0132373705       19.4993387825  SOLV      5253            0.0000000000
     15872      5264  TIP3      H1             -7.9004389864      -11.6062818693       19.0777997843  SOLV      5253            0.0000000000
     15873      5264  TIP3      H2             -6.4108149709      -11.3869822036       19.1759424060  SOLV      5253            0.0000000000
     15874      5265  TIP3      OH2            -4.6603490560       -5.8785742164       15.4109264366  SOLV      5254            0.0000000000
     15875      5265  TIP3      H1             -5.6319324993       -5.8630450939       15.4643410031  SOLV      5254            0.0000000000
     15876      5265  TIP3      H2             -4.4278229022       -5.2989139760       16.1644809321  SOLV      5254            0.0000000000
     15877      5266  TIP3      OH2            -0.5931989139      -15.0484418700        4.4336274900  SOLV      5255            0.0000000000
     15878      5266  TIP3      H1             -1.2021396720      -15.4920968434        3.7946388295  SOLV      5255            0.0000000000
     15879      5266  TIP3      H2             -0.6401462310      -14.1473707881        4.0433726657  SOLV      5255            0.0000000000
     15880      5267  TIP3      OH2             1.6047089721       -6.5016856803       15.1946751391  SOLV      5256            0.0000000000
     15881      5267  TIP3      H1              0.6269045078       -6.5549695663       15.0985302351  SOLV      5256            0.0000000000
     15882      5267  TIP3      H2              1.8687175528       -6.8110935768       14.3005582021  SOLV      5256            0.0000000000
     15883      5268  TIP3      OH2            -3.3068997385       -6.9627962635        3.6409138297  SOLV      5257            0.0000000000
     15884      5268  TIP3      H1             -4.0546378133       -7.3611703367        4.1102600190  SOLV      5257            0.0000000000
     15885      5268  TIP3      H2             -3.3700348451       -7.3625259748        2.7539670592  SOLV      5257            0.0000000000
     15886      5269  TIP3      OH2            -3.5394576322      -10.8365791954       12.3078644688  SOLV      5258            0.0000000000
     15887      5269  TIP3      H1             -4.5024600367      -10.8927364521       12.1852142420  SOLV      5258            0.0000000000
     15888      5269  TIP3      H2             -3.2215310854      -11.1963615909       11.4648667470  SOLV      5258            0.0000000000
     15889      5270  TIP3      OH2           -12.3087272504       -8.3363461385        9.4244437147  SOLV      5259            0.0000000000
     15890      5270  TIP3      H1            -12.3960626399       -7.5169023981        8.8918402554  SOLV      5259            0.0000000000
     15891      5270  TIP3      H2            -13.2350782849       -8.5216063918        9.6186553423  SOLV      5259            0.0000000000
     15892      5271  TIP3      OH2           -16.6020964302      -15.3387950188        6.5933860876  SOLV      5260            0.0000000000
     15893      5271  TIP3      H1            -16.2283514655      -14.4414349326        6.7425656412  SOLV      5260            0.0000000000
     15894      5271  TIP3      H2            -17.4132364504      -15.2798684193        7.1501328728  SOLV      5260            0.0000000000
     15895      5272  TIP3      OH2           -11.0511860572      -10.7153046540        8.8414391672  SOLV      5261            0.0000000000
     15896      5272  TIP3      H1            -11.3805237091       -9.8089806126        9.0176294859  SOLV      5261            0.0000000000
     15897      5272  TIP3      H2            -11.3879505289      -11.1937178953        9.6192118417  SOLV      5261            0.0000000000
     15898      5273  TIP3      OH2            -9.6172699973       -4.8975865047       14.0823237300  SOLV      5262            0.0000000000
     15899      5273  TIP3      H1             -9.2039704697       -4.1736187192       13.5629863141  SOLV      5262            0.0000000000
     15900      5273  TIP3      H2             -8.8296537245       -5.3215097535       14.4536372549  SOLV      5262            0.0000000000
     15901      5274  TIP3      OH2           -13.0634166323       -5.9730985882        8.0304676808  SOLV      5263            0.0000000000
     15902      5274  TIP3      H1            -13.9625671369       -5.9432766052        8.4254919778  SOLV      5263            0.0000000000
     15903      5274  TIP3      H2            -12.8782818321       -5.0305774679        7.9218086514  SOLV      5263            0.0000000000
     15904      5275  TIP3      OH2            -5.7388464675       -8.6033948670       13.6971267349  SOLV      5264            0.0000000000
     15905      5275  TIP3      H1             -5.8551816766       -8.6125402702       14.6721557192  SOLV      5264            0.0000000000
     15906      5275  TIP3      H2             -4.9104492593       -9.0896539525       13.5947950581  SOLV      5264            0.0000000000
     15907      5276  TIP3      OH2            -5.9279439863       -9.7942922044        2.5258248126  SOLV      5265            0.0000000000
     15908      5276  TIP3      H1             -5.5726017547       -9.9913057600        3.4176464118  SOLV      5265            0.0000000000
     15909      5276  TIP3      H2             -6.8848737944       -9.8132589563        2.6689730541  SOLV      5265            0.0000000000
     15910      5277  TIP3      OH2            -3.2370961965       -3.2524359942       14.1780424093  SOLV      5266            0.0000000000
     15911      5277  TIP3      H1             -4.0962981654       -3.7179488841       14.1118724773  SOLV      5266            0.0000000000
     15912      5277  TIP3      H2             -3.3837445046       -2.5401877059       13.5168826270  SOLV      5266            0.0000000000
     15913      5278  TIP3      OH2            -2.3610434684       -5.1312355112        0.5776684875  SOLV      5267            0.0000000000
     15914      5278  TIP3      H1             -2.3456641792       -4.9179476888       -0.3741989362  SOLV      5267            0.0000000000
     15915      5278  TIP3      H2             -3.2111627899       -4.7526267782        0.8471630319  SOLV      5267            0.0000000000
     15916      5279  TIP3      OH2           -12.4635449587      -17.1515286077       19.3552589282  SOLV      5268            0.0000000000
     15917      5279  TIP3      H1            -13.4313753263      -17.1098004025       19.4764497459  SOLV      5268            0.0000000000
     15918      5279  TIP3      H2            -12.1900986954      -17.6812545152       20.1207808118  SOLV      5268            0.0000000000
     15919      5280  TIP3      OH2            -4.4375577831      -10.3764469184        4.7672586575  SOLV      5269            0.0000000000
     15920      5280  TIP3      H1             -4.5135270169      -11.0203625012        5.4989388851  SOLV      5269            0.0000000000
     15921      5280  TIP3      H2             -3.5163304253      -10.5104246472        4.4909152273  SOLV      5269            0.0000000000
     15922      5281  TIP3      OH2           -15.2279037444       -6.3121815949       15.6601711846  SOLV      5270            0.0000000000
     15923      5281  TIP3      H1            -14.6769632090       -6.9992210994       16.0690350235  SOLV      5270            0.0000000000
     15924      5281  TIP3      H2            -15.0255578057       -5.5447296711       16.2113552022  SOLV      5270            0.0000000000
     15925      5282  TIP3      OH2           -12.9041685320       -9.9919085187        2.4653434747  SOLV      5271            0.0000000000
     15926      5282  TIP3      H1            -12.2520175780      -10.6483799275        2.1895069308  SOLV      5271            0.0000000000
     15927      5282  TIP3      H2            -12.7189823844       -9.9130660752        3.4183925288  SOLV      5271            0.0000000000
     15928      5283  TIP3      OH2           -12.7213499750       -9.8564398473        5.2374002244  SOLV      5272            0.0000000000
     15929      5283  TIP3      H1            -12.1439990352       -9.9229686342        6.0032447089  SOLV      5272            0.0000000000
     15930      5283  TIP3      H2            -12.9023071088       -8.8843656115        5.2347711039  SOLV      5272            0.0000000000
     15931      5284  TIP3      OH2           -15.5859944416      -12.8452076094        7.3027055435  SOLV      5273            0.0000000000
     15932      5284  TIP3      H1            -16.2521098450      -12.3718826666        7.8504806549  SOLV      5273            0.0000000000
     15933      5284  TIP3      H2            -15.4636154479      -12.1803958192        6.5926839138  SOLV      5273            0.0000000000
     15934      5285  TIP3      OH2            -3.9283745546      -16.5569458417       16.1780995338  SOLV      5274            0.0000000000
     15935      5285  TIP3      H1             -3.2144137769      -16.1143292246       16.6626170372  SOLV      5274            0.0000000000
     15936      5285  TIP3      H2             -4.1212990627      -17.3343364593       16.7441336186  SOLV      5274            0.0000000000
     15937      5286  TIP3      OH2            -5.1954398469      -19.0343245754        7.9325666409  SOLV      5275            0.0000000000
     15938      5286  TIP3      H1             -5.3665672761      -18.8116346745        6.9962384762  SOLV      5275            0.0000000000
     15939      5286  TIP3      H2             -4.8172943154      -18.1944844810        8.2746052059  SOLV      5275            0.0000000000
     15940      5287  TIP3      OH2            -8.4282159228      -17.1567218279        8.9053069613  SOLV      5276            0.0000000000
     15941      5287  TIP3      H1             -7.7915081549      -16.4297133158        8.7215391601  SOLV      5276            0.0000000000
     15942      5287  TIP3      H2             -8.3309283114      -17.2491958170        9.8775992049  SOLV      5276            0.0000000000
     15943      5288  TIP3      OH2            -5.6727111385      -14.0383748503       16.9588305225  SOLV      5277            0.0000000000
     15944      5288  TIP3      H1             -5.4453098143      -13.4570331079       17.7141955270  SOLV      5277            0.0000000000
     15945      5288  TIP3      H2             -5.1455837141      -14.8305770793       17.1431275209  SOLV      5277            0.0000000000
     15946      5289  TIP3      OH2            -6.9747272187      -19.9748931337        9.8968408373  SOLV      5278            0.0000000000
     15947      5289  TIP3      H1             -7.1078040650      -19.1818347238       10.4524523236  SOLV      5278            0.0000000000
     15948      5289  TIP3      H2             -6.3265539603      -19.6323047189        9.2388840823  SOLV      5278            0.0000000000
     15949      5290  TIP3      OH2           -13.0964237604       -7.2358818811        5.4641441921  SOLV      5279            0.0000000000
     15950      5290  TIP3      H1            -12.7157327266       -6.6839206071        4.7638514496  SOLV      5279            0.0000000000
     15951      5290  TIP3      H2            -13.0957342842       -6.6480863453        6.2411041646  SOLV      5279            0.0000000000
     15952      5291  TIP3      OH2           -11.7763692889      -20.0050083980        7.8082258578  SOLV      5280            0.0000000000
     15953      5291  TIP3      H1            -11.8469427608      -19.0669331275        8.0590631062  SOLV      5280            0.0000000000
     15954      5291  TIP3      H2            -10.8036321593      -20.1009105857        7.8082774964  SOLV      5280            0.0000000000
     15955      5292  TIP3      OH2             0.7153039503      -15.0173004617       16.7511464912  SOLV      5281            0.0000000000
     15956      5292  TIP3      H1             -0.2593169864      -14.9877290141       16.8837601712  SOLV      5281            0.0000000000
     15957      5292  TIP3      H2              0.7477401580      -15.4649068721       15.8962652833  SOLV      5281            0.0000000000
     15958      5293  TIP3      OH2            -2.6987630892      -13.1971166140       10.5259146199  SOLV      5282            0.0000000000
     15959      5293  TIP3      H1             -3.5356028717      -13.6065055141       10.7966593161  SOLV      5282            0.0000000000
     15960      5293  TIP3      H2             -2.0537775289      -13.6008062666       11.1347375710  SOLV      5282            0.0000000000
     15961      5294  TIP3      OH2           -15.6198559156      -10.8152302135        5.3393706074  SOLV      5283            0.0000000000
     15962      5294  TIP3      H1            -15.0538546408      -10.0279691359        5.3944371144  SOLV      5283            0.0000000000
     15963      5294  TIP3      H2            -15.1328254098      -11.3192719860        4.6503667590  SOLV      5283            0.0000000000
     15964      5295  TIP3      OH2           -16.0699948082      -17.9989197884        6.1734189480  SOLV      5284            0.0000000000
     15965      5295  TIP3      H1            -16.1900453396      -17.0506705247        6.4073635595  SOLV      5284            0.0000000000
     15966      5295  TIP3      H2            -16.9790955601      -18.3218860082        6.2451716248  SOLV      5284            0.0000000000
     15967      5296  TIP3      OH2            -3.0324834072       -3.2668392028       10.3347863292  SOLV      5285            0.0000000000
     15968      5296  TIP3      H1             -3.5084677968       -2.8835732712        9.5635787828  SOLV      5285            0.0000000000
     15969      5296  TIP3      H2             -2.1171527208       -3.2471300289        9.9840880279  SOLV      5285            0.0000000000
     15970      5297  TIP3      OH2           -12.2905205364      -20.8139851989       15.3669012293  SOLV      5286            0.0000000000
     15971      5297  TIP3      H1            -12.6060054533      -21.1589625910       14.5052601617  SOLV      5286            0.0000000000
     15972      5297  TIP3      H2            -12.4109047419      -21.5883128532       15.9532764099  SOLV      5286            0.0000000000
     15973      5298  TIP3      OH2           -17.0249080117       -8.7588280119        9.1635901117  SOLV      5287            0.0000000000
     15974      5298  TIP3      H1            -17.5699469902       -8.3723986921        9.8635449145  SOLV      5287            0.0000000000
     15975      5298  TIP3      H2            -17.3434610949       -8.2629424254        8.3708448077  SOLV      5287            0.0000000000
     15976      5299  TIP3      OH2           -15.3382196755       -3.1437481050       19.9123393409  SOLV      5288            0.0000000000
     15977      5299  TIP3      H1            -14.4700930963       -3.1641452228       20.3693722430  SOLV      5288            0.0000000000
     15978      5299  TIP3      H2            -15.5844473130       -4.0832812978       19.9153010350  SOLV      5288            0.0000000000
     15979      5300  TIP3      OH2           -10.5608013687       -3.6432204960       20.4183214654  SOLV      5289            0.0000000000
     15980      5300  TIP3      H1             -9.6064430711       -3.7935489750       20.3868001527  SOLV      5289            0.0000000000
     15981      5300  TIP3      H2            -10.8611345595       -4.2333861081       19.6960778163  SOLV      5289            0.0000000000
     15982      5301  TIP3      OH2            -4.2038692160       -4.4483455679       17.7566211823  SOLV      5290            0.0000000000
     15983      5301  TIP3      H1             -4.2385052813       -5.1587503582       18.4387534934  SOLV      5290            0.0000000000
     15984      5301  TIP3      H2             -3.4213881751       -3.9351097445       18.0333775017  SOLV      5290            0.0000000000
     15985      5302  TIP3      OH2            -6.4925519616       -7.6473020527        0.5580827424  SOLV      5291            0.0000000000
     15986      5302  TIP3      H1             -5.9063807446       -7.9100601148        1.2792130144  SOLV      5291            0.0000000000
     15987      5302  TIP3      H2             -5.8862527168       -7.4595434706       -0.1794629936  SOLV      5291            0.0000000000
     15988      5303  TIP3      OH2           -14.0555858482       -9.1130306856       21.9270895521  SOLV      5292            0.0000000000
     15989      5303  TIP3      H1            -13.9226492928      -10.0764759532       21.9969888192  SOLV      5292            0.0000000000
     15990      5303  TIP3      H2            -14.9219925661       -9.0692498251       21.4636205494  SOLV      5292            0.0000000000
     15991      5304  TIP3      OH2           -14.2423524882      -12.6783994304        3.8887397602  SOLV      5293            0.0000000000
     15992      5304  TIP3      H1            -13.6061482737      -12.8123081699        4.6127661404  SOLV      5293            0.0000000000
     15993      5304  TIP3      H2            -13.6140042454      -12.5420201031        3.1435170430  SOLV      5293            0.0000000000
     15994      5305  TIP3      OH2            -7.9891425052       -8.2319338148       19.6754986092  SOLV      5294            0.0000000000
     15995      5305  TIP3      H1             -8.4177976059       -7.9950906089       18.8243946600  SOLV      5294            0.0000000000
     15996      5305  TIP3      H2             -7.7048074604       -9.1566577392       19.5250085682  SOLV      5294            0.0000000000
     15997      5306  TIP3      OH2            -9.1755243376      -10.7054321768        1.9138003079  SOLV      5295            0.0000000000
     15998      5306  TIP3      H1             -9.1770910106      -10.5000631812        2.8612625260  SOLV      5295            0.0000000000
     15999      5306  TIP3      H2             -9.2221693557      -11.6816690915        1.9169396973  SOLV      5295            0.0000000000
     16000      5307  TIP3      OH2            -3.0200975461       -8.1331575693       15.7788938633  SOLV      5296            0.0000000000
     16001      5307  TIP3      H1             -2.2863757186       -7.7254240724       15.2814236326  SOLV      5296            0.0000000000
     16002      5307  TIP3      H2             -3.7240519207       -7.4683078320       15.6252270194  SOLV      5296            0.0000000000
     16003      5308  TIP3      OH2           -12.8556977419      -11.7518430455       21.8066439054  SOLV      5297            0.0000000000
     16004      5308  TIP3      H1            -12.0659753122      -12.2019204961       21.4859911712  SOLV      5297            0.0000000000
     16005      5308  TIP3      H2            -12.5516945047      -11.4144919926       22.6758144648  SOLV      5297            0.0000000000
     16006      5309  TIP3      OH2           -12.2433381477      -13.5328618248        6.0705461722  SOLV      5298            0.0000000000
     16007      5309  TIP3      H1            -12.4693544440      -13.8592517399        6.9596542398  SOLV      5298            0.0000000000
     16008      5309  TIP3      H2            -11.8318530492      -14.3025900371        5.6337719467  SOLV      5298            0.0000000000
     16009      5310  TIP3      OH2            -9.4511597912      -12.9145353739       18.3901766059  SOLV      5299            0.0000000000
     16010      5310  TIP3      H1            -10.2661729005      -12.3665461139       18.3730304424  SOLV      5299            0.0000000000
     16011      5310  TIP3      H2             -8.9612677464      -12.5672878335       17.6076920189  SOLV      5299            0.0000000000
     16012      5311  TIP3      OH2           -11.2037319694      -15.6724751541        4.5146902776  SOLV      5300            0.0000000000
     16013      5311  TIP3      H1            -11.4405723357      -15.4906449924        3.5767341036  SOLV      5300            0.0000000000
     16014      5311  TIP3      H2            -10.2260915237      -15.6142603362        4.4514814505  SOLV      5300            0.0000000000
     16015      5312  TIP3      OH2            -4.3185350733       -8.9145463110       19.7254252197  SOLV      5301            0.0000000000
     16016      5312  TIP3      H1             -3.6187248345       -9.2871989728       19.1749161466  SOLV      5301            0.0000000000
     16017      5312  TIP3      H2             -4.3959839109       -9.5723586054       20.4395935045  SOLV      5301            0.0000000000
     16018      5313  TIP3      OH2            -2.9416770590      -12.4115533464        1.1610945196  SOLV      5302            0.0000000000
     16019      5313  TIP3      H1             -3.1804063832      -12.8199140700        0.3048347476  SOLV      5302            0.0000000000
     16020      5313  TIP3      H2             -3.2748918336      -11.4986449804        0.9798353907  SOLV      5302            0.0000000000
     16021      5314  TIP3      OH2            -8.2308240345      -15.0254887624       19.5818304958  SOLV      5303            0.0000000000
     16022      5314  TIP3      H1             -8.2588121016      -15.8026735969       18.9892781384  SOLV      5303            0.0000000000
     16023      5314  TIP3      H2             -8.6797033811      -14.3374676936       19.0382341099  SOLV      5303            0.0000000000
     16024      5315  TIP3      OH2            -8.2319054435      -17.1862865344       17.7074860093  SOLV      5304            0.0000000000
     16025      5315  TIP3      H1             -7.9613790924      -16.7435953297       16.8790003512  SOLV      5304            0.0000000000
     16026      5315  TIP3      H2             -9.1716870187      -17.3988068241       17.5210438726  SOLV      5304            0.0000000000
     16027      5316  TIP3      OH2            -7.9969936710      -11.8400569458       16.4170256062  SOLV      5305            0.0000000000
     16028      5316  TIP3      H1             -7.1382356019      -11.6154335731       16.0346975534  SOLV      5305            0.0000000000
     16029      5316  TIP3      H2             -8.5891992441      -11.2002710504       15.9643138965  SOLV      5305            0.0000000000
     16030      5317  TIP3      OH2            -2.2054495397      -12.1896774543       20.1928934495  SOLV      5306            0.0000000000
     16031      5317  TIP3      H1             -1.6735395222      -12.9869464772       20.3353696841  SOLV      5306            0.0000000000
     16032      5317  TIP3      H2             -1.5533215987      -11.5684112458       19.8374221417  SOLV      5306            0.0000000000
     16033      5318  TIP3      OH2            -1.7716030516       -9.6395561999       17.6221529561  SOLV      5307            0.0000000000
     16034      5318  TIP3      H1             -2.3492114498       -9.0827316083       17.0443424324  SOLV      5307            0.0000000000
     16035      5318  TIP3      H2             -0.8962388735       -9.4153725411       17.2348583110  SOLV      5307            0.0000000000
     16036      5319  TIP3      OH2            -9.4432930717      -14.0190789373       21.9773852478  SOLV      5308            0.0000000000
     16037      5319  TIP3      H1            -10.1417049040      -14.6879594360       22.1275778883  SOLV      5308            0.0000000000
     16038      5319  TIP3      H2             -9.1547827302      -14.2371288972       21.0700786876  SOLV      5308            0.0000000000
     16039      5320  TIP3      OH2            -6.9319140058      -19.5757442382       18.4161995532  SOLV      5309            0.0000000000
     16040      5320  TIP3      H1             -7.4304359249      -18.7646406055       18.1748152481  SOLV      5309            0.0000000000
     16041      5320  TIP3      H2             -7.6174070632      -20.2654786925       18.3024733877  SOLV      5309            0.0000000000
     16042      5321  TIP3      OH2            -5.6540576015      -14.5768489167       20.5469203252  SOLV      5310            0.0000000000
     16043      5321  TIP3      H1             -5.8506201700      -14.7147269269       21.4928043341  SOLV      5310            0.0000000000
     16044      5321  TIP3      H2             -6.5410615771      -14.7777520629       20.1748774468  SOLV      5310            0.0000000000
     16045      5322  TIP3      OH2            -3.3050297260      -15.0804342122       19.0841206720  SOLV      5311            0.0000000000
     16046      5322  TIP3      H1             -4.0450868389      -15.0171400526       19.7227542224  SOLV      5311            0.0000000000
     16047      5322  TIP3      H2             -2.5556654096      -15.3354656354       19.6577667499  SOLV      5311            0.0000000000
     16048      5323  TIP3      OH2            -0.9344353779      -15.5858661499       20.5747895463  SOLV      5312            0.0000000000
     16049      5323  TIP3      H1             -0.8354239785      -16.5473456957       20.7364680792  SOLV      5312            0.0000000000
     16050      5323  TIP3      H2             -1.0118416283      -15.2247222592       21.4836304308  SOLV      5312            0.0000000000
     16051      5324  TIP3      OH2           -11.1081465244      -16.1937433256       22.5095103418  SOLV      5313            0.0000000000
     16052      5324  TIP3      H1            -11.0732597707      -17.1173299298       22.1946016254  SOLV      5313            0.0000000000
     16053      5324  TIP3      H2            -10.7354464072      -16.2906915310       23.4094493880  SOLV      5313            0.0000000000
     16054      5325  TIP3      OH2            -6.0014481666      -19.4780307260       20.9986703252  SOLV      5314            0.0000000000
     16055      5325  TIP3      H1             -5.3494558525      -20.2007776318       20.9123576660  SOLV      5314            0.0000000000
     16056      5325  TIP3      H2             -6.4056943582      -19.4984721160       20.1069401371  SOLV      5314            0.0000000000
     16057      5326  TIP3      OH2            -5.3172457766      -17.3231588470       22.5781045308  SOLV      5315            0.0000000000
     16058      5326  TIP3      H1             -5.5362250178      -18.0279929208       21.9304234674  SOLV      5315            0.0000000000
     16059      5326  TIP3      H2             -6.1002217403      -16.7349412405       22.5147851797  SOLV      5315            0.0000000000
     16060      5327  TIP3      OH2           -18.3079289610      -11.1954396503        5.6993854644  SOLV      5316            0.0000000000
     16061      5327  TIP3      H1            -17.3591034330      -10.9843518116        5.5516768952  SOLV      5316            0.0000000000
     16062      5327  TIP3      H2            -18.3744280764      -12.0736145740        5.2680302338  SOLV      5316            0.0000000000
     16063      5328  TIP3      OH2           -19.2148217517       -5.0938479037        9.8993491705  SOLV      5317            0.0000000000
     16064      5328  TIP3      H1            -19.8531395309       -5.7209976665        9.4930561589  SOLV      5317            0.0000000000
     16065      5328  TIP3      H2            -18.7441144235       -5.6892556847       10.5172492844  SOLV      5317            0.0000000000
     16066      5329  TIP3      OH2           -17.7547066424       -6.6688557202       11.6724292598  SOLV      5318            0.0000000000
     16067      5329  TIP3      H1            -17.9177343373       -7.3150772078       12.3817746103  SOLV      5318            0.0000000000
     16068      5329  TIP3      H2            -17.2627974817       -5.9927816217       12.1735987924  SOLV      5318            0.0000000000
     16069      5330  TIP3      OH2            -0.4517110246       -2.6621923709        9.7310691475  SOLV      5319            0.0000000000
     16070      5330  TIP3      H1             -0.2228182914       -2.2847832652       10.5958641704  SOLV      5319            0.0000000000
     16071      5330  TIP3      H2              0.1331615227       -2.1832004635        9.1272089954  SOLV      5319            0.0000000000
     16072      5331  TIP3      OH2            -0.2655201550       -2.3775959103       12.5792847793  SOLV      5320            0.0000000000
     16073      5331  TIP3      H1             -0.7587864834       -3.2170292631       12.4701623705  SOLV      5320            0.0000000000
     16074      5331  TIP3      H2              0.4663186663       -2.6869338831       13.1329468936  SOLV      5320            0.0000000000
     16075      5332  TIP3      OH2             0.2555473988       -5.6296717359       18.3119206541  SOLV      5321            0.0000000000
     16076      5332  TIP3      H1             -0.4787751435       -5.5162774640       18.9496466663  SOLV      5321            0.0000000000
     16077      5332  TIP3      H2              0.6635723395       -4.7399967629       18.3294385332  SOLV      5321            0.0000000000
     16078      5333  TIP3      OH2            -1.6049960595      -10.4234129059        4.4422953770  SOLV      5322            0.0000000000
     16079      5333  TIP3      H1             -1.8443448029       -9.5337256739        4.7513308946  SOLV      5322            0.0000000000
     16080      5333  TIP3      H2             -1.1561148924      -10.8074469380        5.2304881835  SOLV      5322            0.0000000000
     16081      5334  TIP3      OH2            -0.3496879191      -11.7368024472        6.4900945921  SOLV      5323            0.0000000000
     16082      5334  TIP3      H1             -1.0098236580      -12.1643104031        7.0816693808  SOLV      5323            0.0000000000
     16083      5334  TIP3      H2              0.2791608956      -11.3423288381        7.1292224852  SOLV      5323            0.0000000000
     16084      5335  TIP3      OH2            -1.5399565798       -4.8964213392       12.6708394191  SOLV      5324            0.0000000000
     16085      5335  TIP3      H1             -2.2899697583       -4.4638125491       13.1243284766  SOLV      5324            0.0000000000
     16086      5335  TIP3      H2             -1.9343897238       -5.1571698424       11.8206700396  SOLV      5324            0.0000000000
     16087      5336  TIP3      OH2            -0.9326105219      -12.7290554627        2.9459926187  SOLV      5325            0.0000000000
     16088      5336  TIP3      H1             -1.6485544534      -12.7436940853        2.2644960035  SOLV      5325            0.0000000000
     16089      5336  TIP3      H2             -1.2187648285      -11.9430329181        3.4555891765  SOLV      5325            0.0000000000
     16090      5337  TIP3      OH2            -2.2010935044      -16.0264814125        2.4776672643  SOLV      5326            0.0000000000
     16091      5337  TIP3      H1             -2.7216508870      -15.6066509161        1.7822839904  SOLV      5326            0.0000000000
     16092      5337  TIP3      H2             -2.4534562913      -16.9678127965        2.3568006272  SOLV      5326            0.0000000000
     16093      5338  TIP3      OH2            -2.1707299555      -13.2256876384        7.8835526320  SOLV      5327            0.0000000000
     16094      5338  TIP3      H1             -2.1394853597      -14.1924463011        7.8121429943  SOLV      5327            0.0000000000
     16095      5338  TIP3      H2             -2.3172222560      -13.1003927067        8.8524687214  SOLV      5327            0.0000000000
     16096      5339  TIP3      OH2           -15.9428822598      -12.6386826222       15.4954324688  SOLV      5328            0.0000000000
     16097      5339  TIP3      H1            -16.0010134731      -12.9014322932       14.5539584063  SOLV      5328            0.0000000000
     16098      5339  TIP3      H2            -14.9665225032      -12.5699508094       15.6077646813  SOLV      5328            0.0000000000
     16099      5340  TIP3      OH2             0.6988630157       -8.9831777132       16.5723949355  SOLV      5329            0.0000000000
     16100      5340  TIP3      H1              1.4106136254       -9.6358283709       16.4018209524  SOLV      5329            0.0000000000
     16101      5340  TIP3      H2              0.8467651205       -8.3193246444       15.8790278460  SOLV      5329            0.0000000000
     16102      5341  TIP3      OH2             2.5362082695      -11.0079371505       16.5399668920  SOLV      5330            0.0000000000
     16103      5341  TIP3      H1              1.7802009013      -11.4573416470       16.9781386128  SOLV      5330            0.0000000000
     16104      5341  TIP3      H2              3.2526801534      -11.6445576718       16.7449091882  SOLV      5330            0.0000000000
     16105      5342  TIP3      OH2            -2.8154661757      -18.6917260822        2.3172126941  SOLV      5331            0.0000000000
     16106      5342  TIP3      H1             -2.1315461111      -19.0112002294        2.9344229606  SOLV      5331            0.0000000000
     16107      5342  TIP3      H2             -3.5866659598      -19.2537496237        2.5087029360  SOLV      5331            0.0000000000
     16108      5343  TIP3      OH2            -2.2188470293      -16.0601676240        6.8809940766  SOLV      5332            0.0000000000
     16109      5343  TIP3      H1             -1.8140023319      -16.9495147131        7.0121115873  SOLV      5332            0.0000000000
     16110      5343  TIP3      H2             -1.6533699297      -15.7211290663        6.1649952258  SOLV      5332            0.0000000000
     16111      5344  TIP3      OH2            -0.5688198254      -14.4623378830       11.9220339239  SOLV      5333            0.0000000000
     16112      5344  TIP3      H1              0.2437054453      -14.1290639905       11.4871809408  SOLV      5333            0.0000000000
     16113      5344  TIP3      H2             -0.4988304355      -13.9885737473       12.7759842216  SOLV      5333            0.0000000000
     16114      5345  TIP3      OH2             0.0659627996      -12.8785284595       14.1386503735  SOLV      5334            0.0000000000
     16115      5345  TIP3      H1             -0.7122852774      -12.5681423929       14.6424927591  SOLV      5334            0.0000000000
     16116      5345  TIP3      H2              0.3731860712      -12.0343255185       13.7375302834  SOLV      5334            0.0000000000
     16117      5346  TIP3      OH2           -13.7723762508      -15.6880218471       22.1349421732  SOLV      5335            0.0000000000
     16118      5346  TIP3      H1            -12.7948502806      -15.7140112095       22.2126446130  SOLV      5335            0.0000000000
     16119      5346  TIP3      H2            -14.0027006427      -16.5510553581       22.5320111021  SOLV      5335            0.0000000000
     16120      5347  TIP3      OH2             4.6239135866      -16.9279509085       19.7060141902  SOLV      5336            0.0000000000
     16121      5347  TIP3      H1              5.2177968441      -17.5753870621       19.2727117912  SOLV      5336            0.0000000000
     16122      5347  TIP3      H2              4.2673346657      -16.4336787491       18.9357026814  SOLV      5336            0.0000000000
     16123      5348  TIP3      OH2            -1.1255978591      -18.5672307454        7.2628905406  SOLV      5337            0.0000000000
     16124      5348  TIP3      H1             -0.6759365398      -18.7297129214        8.1180579992  SOLV      5337            0.0000000000
     16125      5348  TIP3      H2             -1.7594721546      -19.3139487218        7.2474404734  SOLV      5337            0.0000000000
     16126      5349  TIP3      OH2           -14.1419085735      -18.7230784608       15.4517352497  SOLV      5338            0.0000000000
     16127      5349  TIP3      H1            -13.5154059596      -19.4667920385       15.5445535074  SOLV      5338            0.0000000000
     16128      5349  TIP3      H2            -13.5282248261      -17.9703040282       15.3850174346  SOLV      5338            0.0000000000
     16129      5350  TIP3      OH2           -16.1430951488      -16.0113508532       16.2169534675  SOLV      5339            0.0000000000
     16130      5350  TIP3      H1            -15.6477455439      -15.9837752293       15.3744328154  SOLV      5339            0.0000000000
     16131      5350  TIP3      H2            -15.9931732020      -15.1196791187       16.5559305645  SOLV      5339            0.0000000000
     16132      5351  TIP3      OH2             3.2591441736      -15.6216462942       17.7656265155  SOLV      5340            0.0000000000
     16133      5351  TIP3      H1              2.4433014500      -15.1499711334       18.0334260881  SOLV      5340            0.0000000000
     16134      5351  TIP3      H2              2.8666655388      -16.3079168949       17.1887578530  SOLV      5340            0.0000000000
     16135      5352  TIP3      OH2            -0.3595018623      -19.2858856245        3.6748214064  SOLV      5341            0.0000000000
     16136      5352  TIP3      H1              0.0075874627      -19.9502965878        3.0549699140  SOLV      5341            0.0000000000
     16137      5352  TIP3      H2              0.2794750485      -18.5510937536        3.5999043887  SOLV      5341            0.0000000000
     16138      5353  TIP3      OH2           -16.2980643382      -20.9821086973       11.1458171300  SOLV      5342            0.0000000000
     16139      5353  TIP3      H1            -17.1979391445      -21.0324774399       11.5144757198  SOLV      5342            0.0000000000
     16140      5353  TIP3      H2            -16.4199988612      -20.3631389456       10.3983430118  SOLV      5342            0.0000000000
     16141      5354  TIP3      OH2            -4.6119230611       -3.9009803701        6.3398118488  SOLV      5343            0.0000000000
     16142      5354  TIP3      H1             -4.1459694093       -3.9434224997        5.4831649400  SOLV      5343            0.0000000000
     16143      5354  TIP3      H2             -4.1429177149       -3.1748239348        6.7798616954  SOLV      5343            0.0000000000
     16144      5355  TIP3      OH2           -14.0824436076      -20.2066611254       19.3374804343  SOLV      5344            0.0000000000
     16145      5355  TIP3      H1            -14.5879520055      -20.1914774474       20.1655513625  SOLV      5344            0.0000000000
     16146      5355  TIP3      H2            -14.7198945032      -19.7823527220       18.7275680104  SOLV      5344            0.0000000000
     16147      5356  TIP3      OH2           -13.6826300332       -5.8915063220       20.1163111962  SOLV      5345            0.0000000000
     16148      5356  TIP3      H1            -14.6276599203       -6.0706619379       19.9454580579  SOLV      5345            0.0000000000
     16149      5356  TIP3      H2            -13.6281562160       -6.0300602289       21.0683539585  SOLV      5345            0.0000000000
     16150      5357  TIP3      OH2           -11.8435973998       -5.4905266682       15.6173989628  SOLV      5346            0.0000000000
     16151      5357  TIP3      H1            -12.3523717679       -4.7498894858       15.2234172551  SOLV      5346            0.0000000000
     16152      5357  TIP3      H2            -10.9968914784       -5.3310198487       15.1497222357  SOLV      5346            0.0000000000
     16153      5358  TIP3      OH2            -7.5103805675       -3.1379920126       16.9915934943  SOLV      5347            0.0000000000
     16154      5358  TIP3      H1             -7.0825353501       -3.1057989195       17.8718669276  SOLV      5347            0.0000000000
     16155      5358  TIP3      H2             -6.8869640121       -2.5894171825       16.4670729627  SOLV      5347            0.0000000000
     16156      5359  TIP3      OH2            -5.7634103833       -1.5305299466       15.6396494536  SOLV      5348            0.0000000000
     16157      5359  TIP3      H1             -5.1364189861       -2.0002476092       15.0719652410  SOLV      5348            0.0000000000
     16158      5359  TIP3      H2             -5.1608111149       -1.0059333142       16.2105594461  SOLV      5348            0.0000000000
     16159      5360  TIP3      OH2             2.2852417041      -17.9772961861       16.5453041785  SOLV      5349            0.0000000000
     16160      5360  TIP3      H1              1.3773787473      -18.0459632648       16.2010228738  SOLV      5349            0.0000000000
     16161      5360  TIP3      H2              2.5869879091      -18.9103230822       16.4734527146  SOLV      5349            0.0000000000
     16162      5361  TIP3      OH2           -15.1600007893       -2.9805689432       15.8721988279  SOLV      5350            0.0000000000
     16163      5361  TIP3      H1            -16.0517120074       -2.6537843162       15.6138729273  SOLV      5350            0.0000000000
     16164      5361  TIP3      H2            -15.0502066673       -2.5112945848       16.7096997992  SOLV      5350            0.0000000000
     16165      5362  TIP3      OH2           -12.7794840649       -3.1865482312       14.4516365103  SOLV      5351            0.0000000000
     16166      5362  TIP3      H1            -13.6605837336       -3.0551216465       14.8667337981  SOLV      5351            0.0000000000
     16167      5362  TIP3      H2            -12.9461772830       -2.8633117823       13.5421903934  SOLV      5351            0.0000000000
     16168      5363  TIP3      OH2            -8.4842579981       -2.9456047426       12.4637199904  SOLV      5352            0.0000000000
     16169      5363  TIP3      H1             -9.2028230939       -2.8122689817       11.8090549612  SOLV      5352            0.0000000000
     16170      5363  TIP3      H2             -8.3817069843       -2.0371881688       12.8106372203  SOLV      5352            0.0000000000
     16171      5364  TIP3      OH2            -5.7511070553       -3.4421053839       13.0676869673  SOLV      5353            0.0000000000
     16172      5364  TIP3      H1             -6.7059740846       -3.4127902569       12.8547177904  SOLV      5353            0.0000000000
     16173      5364  TIP3      H2             -5.3967939177       -2.8007952342       12.4345394025  SOLV      5353            0.0000000000
     16174      5365  TIP3      OH2            -3.6972165769       -1.4393602000       12.1866423988  SOLV      5354            0.0000000000
     16175      5365  TIP3      H1             -3.9312726780       -0.6518447081       11.6516779160  SOLV      5354            0.0000000000
     16176      5365  TIP3      H2             -3.4540278176       -2.0848957285       11.4790860117  SOLV      5354            0.0000000000
     16177      5366  TIP3      OH2           -16.0392119131       -5.0455362993       13.2833414889  SOLV      5355            0.0000000000
     16178      5366  TIP3      H1            -15.7654517615       -5.3443260383       14.1761839480  SOLV      5355            0.0000000000
     16179      5366  TIP3      H2            -15.3239256616       -5.4640659082       12.7532650401  SOLV      5355            0.0000000000
     16180      5367  TIP3      OH2           -14.0918783431       -6.3156697881       11.8853692504  SOLV      5356            0.0000000000
     16181      5367  TIP3      H1            -13.9418280174       -7.1408476335       12.4033418937  SOLV      5356            0.0000000000
     16182      5367  TIP3      H2            -13.1796958402       -5.9549422759       11.8425936590  SOLV      5356            0.0000000000
     16183      5368  TIP3      OH2           -11.4320186796       -5.4689681291       11.9499492255  SOLV      5357            0.0000000000
     16184      5368  TIP3      H1            -11.1023180843       -6.3856137829       11.9225491234  SOLV      5357            0.0000000000
     16185      5368  TIP3      H2            -10.9426524115       -5.1379566413       12.7255753979  SOLV      5357            0.0000000000
     16186      5369  TIP3      OH2            -5.6099815641      -18.8114494988       12.8488596621  SOLV      5358            0.0000000000
     16187      5369  TIP3      H1             -6.0858757623      -19.5160831712       13.3217396148  SOLV      5358            0.0000000000
     16188      5369  TIP3      H2             -4.9052504305      -19.3009613163       12.3851617542  SOLV      5358            0.0000000000
     16189      5370  TIP3      OH2            -0.4717224391      -20.0191426513       11.8020409003  SOLV      5359            0.0000000000
     16190      5370  TIP3      H1             -0.1290736101      -19.4880632060       11.0493775559  SOLV      5359            0.0000000000
     16191      5370  TIP3      H2             -1.4265420558      -19.8173735633       11.7612507838  SOLV      5359            0.0000000000
     16192      5371  TIP3      OH2             0.4941917189      -19.0478856976        9.4427667845  SOLV      5360            0.0000000000
     16193      5371  TIP3      H1              1.2397694546      -19.5488952439        9.0505554936  SOLV      5360            0.0000000000
     16194      5371  TIP3      H2              0.8280722581      -18.1286947017        9.3206064627  SOLV      5360            0.0000000000
     16195      5372  TIP3      OH2           -13.1972551640      -21.7539753328       12.8964596475  SOLV      5361            0.0000000000
     16196      5372  TIP3      H1            -14.1241381369      -22.0740627789       12.9602905608  SOLV      5361            0.0000000000
     16197      5372  TIP3      H2            -12.7241081470      -22.6128259197       12.8593718402  SOLV      5361            0.0000000000
     16198      5373  TIP3      OH2           -15.2892910272      -22.9978657636        9.4643725219  SOLV      5362            0.0000000000
     16199      5373  TIP3      H1            -15.0561524165      -22.3940504538        8.7465912234  SOLV      5362            0.0000000000
     16200      5373  TIP3      H2            -15.5966161092      -22.3703869290       10.1536845734  SOLV      5362            0.0000000000
     16201      5374  TIP3      OH2            -8.7070192558      -21.4490719763       11.7395712440  SOLV      5363            0.0000000000
     16202      5374  TIP3      H1             -8.1607451474      -20.9516548269       11.1092100921  SOLV      5363            0.0000000000
     16203      5374  TIP3      H2             -8.5031807149      -21.0021704489       12.5732153209  SOLV      5363            0.0000000000
     16204      5375  TIP3      OH2            -3.2941482370      -19.9406485706       11.5538945686  SOLV      5364            0.0000000000
     16205      5375  TIP3      H1             -3.3186266178      -20.3441789890       10.6773162582  SOLV      5364            0.0000000000
     16206      5375  TIP3      H2             -3.4077282199      -20.7282630421       12.1373528167  SOLV      5364            0.0000000000
     16207      5376  TIP3      OH2            -2.9837723742      -20.6690249901        7.2106770720  SOLV      5365            0.0000000000
     16208      5376  TIP3      H1             -3.8278484297      -20.2161739545        7.4052298089  SOLV      5365            0.0000000000
     16209      5376  TIP3      H2             -3.1380001155      -21.5354601580        7.6443790728  SOLV      5365            0.0000000000
     16210      5377  TIP3      OH2           -18.1437008996       -7.2870498592        7.1938155835  SOLV      5366            0.0000000000
     16211      5377  TIP3      H1            -19.0172221172       -7.5861357971        6.8811718608  SOLV      5366            0.0000000000
     16212      5377  TIP3      H2            -18.1994901431       -6.3449339694        6.9617982685  SOLV      5366            0.0000000000
     16213      5378  TIP3      OH2           -14.0098884246      -21.2595452235        6.7977353593  SOLV      5367            0.0000000000
     16214      5378  TIP3      H1            -13.5863375213      -22.0912287234        6.5305387934  SOLV      5367            0.0000000000
     16215      5378  TIP3      H2            -13.2745645604      -20.8206774101        7.2848527061  SOLV      5367            0.0000000000
     16216      5379  TIP3      OH2            -8.9996968058      -19.6574979173        7.9811620690  SOLV      5368            0.0000000000
     16217      5379  TIP3      H1             -8.4416526565      -20.1353200099        8.6183831817  SOLV      5368            0.0000000000
     16218      5379  TIP3      H2             -8.7988852609      -18.7346611770        8.2573598492  SOLV      5368            0.0000000000
     16219      5380  TIP3      OH2            -3.3089383868       -4.1847235389        3.8797608506  SOLV      5369            0.0000000000
     16220      5380  TIP3      H1             -3.2452952494       -5.1655845080        3.8281877215  SOLV      5369            0.0000000000
     16221      5380  TIP3      H2             -4.1237994875       -4.0192080733        3.3780876973  SOLV      5369            0.0000000000
     16222      5381  TIP3      OH2           -11.1226778499      -18.9438959071       21.8262127564  SOLV      5370            0.0000000000
     16223      5381  TIP3      H1            -11.4959785930      -19.6421009035       22.3928956281  SOLV      5370            0.0000000000
     16224      5381  TIP3      H2            -10.1873945241      -18.9491059259       22.1276897021  SOLV      5370            0.0000000000
     16225      5382  TIP3      OH2            -8.6166938923      -18.9559620608       23.0228081761  SOLV      5371            0.0000000000
     16226      5382  TIP3      H1             -7.7597455342      -19.2046797415       22.6380062110  SOLV      5371            0.0000000000
     16227      5382  TIP3      H2             -8.7424385457      -19.6559200073       23.6964806997  SOLV      5371            0.0000000000
     16228      5383  TIP3      OH2           -17.3990450508       -7.1604896512        3.5424442052  SOLV      5372            0.0000000000
     16229      5383  TIP3      H1            -17.2931721012       -6.8814089289        4.4616037526  SOLV      5372            0.0000000000
     16230      5383  TIP3      H2            -16.5090669572       -7.5429904389        3.3444193647  SOLV      5372            0.0000000000
     16231      5384  TIP3      OH2            -0.3379286149      -18.3201925687       20.8940645987  SOLV      5373            0.0000000000
     16232      5384  TIP3      H1             -0.1806664410      -18.6174519959       21.8172243339  SOLV      5373            0.0000000000
     16233      5384  TIP3      H2              0.5630661329      -18.3789667675       20.5142507772  SOLV      5373            0.0000000000
     16234      5385  TIP3      OH2            -1.0097429463       -2.8349504633       15.8243756729  SOLV      5374            0.0000000000
     16235      5385  TIP3      H1             -1.7718164261       -3.1383612317       15.2836991949  SOLV      5374            0.0000000000
     16236      5385  TIP3      H2             -1.2123687630       -1.8786311906       15.8808838502  SOLV      5374            0.0000000000
     16237      5386  TIP3      OH2            11.6477102727       -9.1319677079        3.4875208134  SOLV      5375            0.0000000000
     16238      5386  TIP3      H1             11.3772168649       -8.2173847947        3.2642076393  SOLV      5375            0.0000000000
     16239      5386  TIP3      H2             10.9228041108       -9.6202305173        3.0554689630  SOLV      5375            0.0000000000
     16240      5387  TIP3      OH2            11.7364639516       -9.0331559893        7.3013108166  SOLV      5376            0.0000000000
     16241      5387  TIP3      H1             12.0348664742       -9.2559741968        8.2037578646  SOLV      5376            0.0000000000
     16242      5387  TIP3      H2             11.3089396073       -9.8476824999        7.0066803487  SOLV      5376            0.0000000000
     16243      5388  TIP3      OH2             4.8498755163      -10.1323650397       11.0095771261  SOLV      5377            0.0000000000
     16244      5388  TIP3      H1              4.8168118622       -9.9457890086       11.9607915154  SOLV      5377            0.0000000000
     16245      5388  TIP3      H2              5.6222308213       -9.6103243900       10.7432611471  SOLV      5377            0.0000000000
     16246      5389  TIP3      OH2            14.1516212139       -6.1023107592        4.1301304293  SOLV      5378            0.0000000000
     16247      5389  TIP3      H1             13.9658117568       -6.6704745384        4.8869670079  SOLV      5378            0.0000000000
     16248      5389  TIP3      H2             14.3993860304       -5.2650350400        4.5583528101  SOLV      5378            0.0000000000
     16249      5390  TIP3      OH2             4.4679906724       -6.0231394151        8.1587219908  SOLV      5379            0.0000000000
     16250      5390  TIP3      H1              4.3514443659       -6.9907448243        8.2235299173  SOLV      5379            0.0000000000
     16251      5390  TIP3      H2              5.4325369197       -5.9535088833        8.0383663942  SOLV      5379            0.0000000000
     16252      5391  TIP3      OH2             1.4512601924      -14.0397559142        6.0392207322  SOLV      5380            0.0000000000
     16253      5391  TIP3      H1              1.0191262148      -13.1898714805        6.2402321536  SOLV      5380            0.0000000000
     16254      5391  TIP3      H2              0.7355481252      -14.4892598970        5.5509309425  SOLV      5380            0.0000000000
     16255      5392  TIP3      OH2             2.1436882328      -11.1556209381        7.5967557024  SOLV      5381            0.0000000000
     16256      5392  TIP3      H1              2.4497996486      -11.8578802707        8.2019236554  SOLV      5381            0.0000000000
     16257      5392  TIP3      H2              2.9739100836      -10.8565616575        7.2145379683  SOLV      5381            0.0000000000
     16258      5393  TIP3      OH2            10.6501450279       -1.4228631195        4.2854221350  SOLV      5382            0.0000000000
     16259      5393  TIP3      H1             11.0428178991       -2.1072127161        3.6924256933  SOLV      5382            0.0000000000
     16260      5393  TIP3      H2             10.5523262843       -1.9320653116        5.0953801329  SOLV      5382            0.0000000000
     16261      5394  TIP3      OH2             9.6590002392       -6.8500314207        7.7910677779  SOLV      5383            0.0000000000
     16262      5394  TIP3      H1             10.1310287123       -7.5515384293        7.3131047399  SOLV      5383            0.0000000000
     16263      5394  TIP3      H2             10.4450810612       -6.3425960584        8.0929028850  SOLV      5383            0.0000000000
     16264      5395  TIP3      OH2            19.8172138752      -13.6353946702        7.7777337567  SOLV      5384            0.0000000000
     16265      5395  TIP3      H1             20.1105185218      -12.8085157409        8.2113288136  SOLV      5384            0.0000000000
     16266      5395  TIP3      H2             20.0954812476      -13.4742766605        6.8576047911  SOLV      5384            0.0000000000
     16267      5396  TIP3      OH2            13.6149476903      -11.9074235243        8.1118509711  SOLV      5385            0.0000000000
     16268      5396  TIP3      H1             14.1531919021      -12.7033598100        8.2856053652  SOLV      5385            0.0000000000
     16269      5396  TIP3      H2             13.4021965857      -12.0288662152        7.1665929061  SOLV      5385            0.0000000000
     16270      5397  TIP3      OH2             7.1303980413      -15.1569720728        7.9445780586  SOLV      5386            0.0000000000
     16271      5397  TIP3      H1              6.9166797017      -14.4563178580        7.2934178349  SOLV      5386            0.0000000000
     16272      5397  TIP3      H2              6.6753949529      -15.9069310894        7.4976791039  SOLV      5386            0.0000000000
     16273      5398  TIP3      OH2            14.1491885387      -14.2204869498        3.9580450834  SOLV      5387            0.0000000000
     16274      5398  TIP3      H1             14.8820122481      -14.3461502584        4.6060237892  SOLV      5387            0.0000000000
     16275      5398  TIP3      H2             14.6424922748      -13.8710409967        3.1937346696  SOLV      5387            0.0000000000
     16276      5399  TIP3      OH2             3.4875280001      -13.2336430723        8.8091852863  SOLV      5388            0.0000000000
     16277      5399  TIP3      H1              4.1216623076      -13.7393103310        9.3280758858  SOLV      5388            0.0000000000
     16278      5399  TIP3      H2              3.5461083506      -13.7165062622        7.9569978843  SOLV      5388            0.0000000000
     16279      5400  TIP3      OH2             7.9551788038      -11.2607936599        6.7413711561  SOLV      5389            0.0000000000
     16280      5400  TIP3      H1              8.8945505645      -11.5246985034        6.8296378715  SOLV      5389            0.0000000000
     16281      5400  TIP3      H2              7.5444776750      -12.0820439385        6.3965463362  SOLV      5389            0.0000000000
     16282      5401  TIP3      OH2            20.5089673849      -11.5725909049        9.5483657439  SOLV      5390            0.0000000000
     16283      5401  TIP3      H1             19.7030585695      -11.0531090465        9.3488403597  SOLV      5390            0.0000000000
     16284      5401  TIP3      H2             20.8819981356      -11.0740776367       10.3002625425  SOLV      5390            0.0000000000
     16285      5402  TIP3      OH2            10.5995141147       -6.9617380321        2.0454034888  SOLV      5391            0.0000000000
     16286      5402  TIP3      H1             10.2556302185       -7.0280515854        1.1373308062  SOLV      5391            0.0000000000
     16287      5402  TIP3      H2             10.5222901670       -6.0092680515        2.1999510290  SOLV      5391            0.0000000000
     16288      5403  TIP3      OH2             8.1932969571       -7.6842609744       10.0086430352  SOLV      5392            0.0000000000
     16289      5403  TIP3      H1              7.6102818220       -6.9755929168       10.3657266038  SOLV      5392            0.0000000000
     16290      5403  TIP3      H2              8.6171630893       -7.2171397709        9.2571622086  SOLV      5392            0.0000000000
     16291      5404  TIP3      OH2            16.1815003323      -14.1894565879        5.7522776980  SOLV      5393            0.0000000000
     16292      5404  TIP3      H1             15.9882218657      -14.5633258999        6.6229154622  SOLV      5393            0.0000000000
     16293      5404  TIP3      H2             16.7217190036      -13.4092218976        5.9907999420  SOLV      5393            0.0000000000
     16294      5405  TIP3      OH2             6.4385171547      -13.7082535449       10.4858330597  SOLV      5394            0.0000000000
     16295      5405  TIP3      H1              6.3993668027      -12.9201748500        9.9099270764  SOLV      5394            0.0000000000
     16296      5405  TIP3      H2              6.7088698912      -14.3724703839        9.8133175034  SOLV      5394            0.0000000000
     16297      5406  TIP3      OH2             6.5260067811       -5.6608120955       11.0077204203  SOLV      5395            0.0000000000
     16298      5406  TIP3      H1              6.2920427036       -4.7868134632       10.6296379888  SOLV      5395            0.0000000000
     16299      5406  TIP3      H2              5.7144382864       -5.8148657795       11.5397859915  SOLV      5395            0.0000000000
     16300      5407  TIP3      OH2            14.8132595819       -3.6071541571        5.7426467091  SOLV      5396            0.0000000000
     16301      5407  TIP3      H1             13.9220711110       -3.6959297628        6.1527638817  SOLV      5396            0.0000000000
     16302      5407  TIP3      H2             14.7146096817       -2.7480350259        5.2852709286  SOLV      5396            0.0000000000
     16303      5408  TIP3      OH2            17.7584028263      -14.7442219543        9.3527923859  SOLV      5397            0.0000000000
     16304      5408  TIP3      H1             16.9217792883      -14.3577000356        9.0523372930  SOLV      5397            0.0000000000
     16305      5408  TIP3      H2             18.4060907058      -14.3452381216        8.7313238909  SOLV      5397            0.0000000000
     16306      5409  TIP3      OH2            10.6615822471      -18.2790812447        9.2843114335  SOLV      5398            0.0000000000
     16307      5409  TIP3      H1             10.5202413395      -19.2358663908        9.4344550119  SOLV      5398            0.0000000000
     16308      5409  TIP3      H2              9.8804219728      -17.9162344273        9.7520572891  SOLV      5398            0.0000000000
     16309      5410  TIP3      OH2            12.0575290953       -3.1607350157        2.7304014465  SOLV      5399            0.0000000000
     16310      5410  TIP3      H1             12.3920219293       -3.9899373747        2.3353763434  SOLV      5399            0.0000000000
     16311      5410  TIP3      H2             12.4019589732       -2.5189227520        2.0764049696  SOLV      5399            0.0000000000
     16312      5411  TIP3      OH2            13.2890976517       -5.3743975182        1.5803831958  SOLV      5400            0.0000000000
     16313      5411  TIP3      H1             13.0346871678       -6.1719236625        1.0977452068  SOLV      5400            0.0000000000
     16314      5411  TIP3      H2             13.6372147762       -5.7362366549        2.4226954184  SOLV      5400            0.0000000000
     16315      5412  TIP3      OH2            17.0510112746       -4.5266884079        9.2232137535  SOLV      5401            0.0000000000
     16316      5412  TIP3      H1             16.9370611066       -5.2816449474        8.6067082063  SOLV      5401            0.0000000000
     16317      5412  TIP3      H2             16.8576720318       -3.7630402271        8.6373923594  SOLV      5401            0.0000000000
     16318      5413  TIP3      OH2             9.9917415244      -10.5563433695        1.8138929612  SOLV      5402            0.0000000000
     16319      5413  TIP3      H1              9.2096464516       -9.9923261152        1.6237248993  SOLV      5402            0.0000000000
     16320      5413  TIP3      H2             10.4327374184      -10.5635391470        0.9460684914  SOLV      5402            0.0000000000
     16321      5414  TIP3      OH2             9.5980474896      -12.7295942128       -1.0705848615  SOLV      5403            0.0000000000
     16322      5414  TIP3      H1             10.2336175044      -12.1529195684       -0.6081417402  SOLV      5403            0.0000000000
     16323      5414  TIP3      H2             10.2148711237      -13.3354029933       -1.5328974682  SOLV      5403            0.0000000000
     16324      5415  TIP3      OH2            19.0019597006       -8.1523302699        7.6723809503  SOLV      5404            0.0000000000
     16325      5415  TIP3      H1             18.1766545576       -7.6190711128        7.7004380264  SOLV      5404            0.0000000000
     16326      5415  TIP3      H2             19.3440398437       -7.8808817419        6.7912838007  SOLV      5404            0.0000000000
     16327      5416  TIP3      OH2            13.4640306117       -9.7611547547        1.5086327166  SOLV      5405            0.0000000000
     16328      5416  TIP3      H1             12.9215342249       -9.5080026404        2.2897025237  SOLV      5405            0.0000000000
     16329      5416  TIP3      H2             14.3276892758       -9.9364755678        1.9367618772  SOLV      5405            0.0000000000
     16330      5417  TIP3      OH2            15.8115694852       -9.3733877017       10.7152265572  SOLV      5406            0.0000000000
     16331      5417  TIP3      H1             15.8286705178       -8.5595226165       11.2603962220  SOLV      5406            0.0000000000
     16332      5417  TIP3      H2             14.9914280186       -9.2264193756       10.2094453383  SOLV      5406            0.0000000000
     16333      5418  TIP3      OH2             5.8009753506       -9.9039194944        5.7475125725  SOLV      5407            0.0000000000
     16334      5418  TIP3      H1              5.7060870863      -10.4521191945        4.9602081794  SOLV      5407            0.0000000000
     16335      5418  TIP3      H2              6.6153009541      -10.2825921091        6.1448610426  SOLV      5407            0.0000000000
     16336      5419  TIP3      OH2             7.0909519885       -5.7315403942        7.1651900217  SOLV      5408            0.0000000000
     16337      5419  TIP3      H1              6.9437975104       -5.9361722444        6.2300303076  SOLV      5408            0.0000000000
     16338      5419  TIP3      H2              7.9813782556       -6.1029361704        7.3301633516  SOLV      5408            0.0000000000
     16339      5420  TIP3      OH2             7.3008515490      -10.2244053332        9.2829943615  SOLV      5409            0.0000000000
     16340      5420  TIP3      H1              7.6195667117      -10.4063621677        8.3793451247  SOLV      5409            0.0000000000
     16341      5420  TIP3      H2              7.6653700274       -9.3329312146        9.4625396982  SOLV      5409            0.0000000000
     16342      5421  TIP3      OH2            12.4498085173       -3.6856745412        7.0425116369  SOLV      5410            0.0000000000
     16343      5421  TIP3      H1             12.2736218714       -2.8443163099        7.5018329812  SOLV      5410            0.0000000000
     16344      5421  TIP3      H2             12.2152567340       -4.3610508471        7.7044382072  SOLV      5410            0.0000000000
     16345      5422  TIP3      OH2             8.5488854370       -4.5121208729       12.4932622977  SOLV      5411            0.0000000000
     16346      5422  TIP3      H1              7.9241579390       -3.8957654531       12.9362368494  SOLV      5411            0.0000000000
     16347      5422  TIP3      H2              7.9161890006       -5.0295222468       11.9527495606  SOLV      5411            0.0000000000
     16348      5423  TIP3      OH2            11.8450245707      -11.1737404124       -0.2338539175  SOLV      5412            0.0000000000
     16349      5423  TIP3      H1             12.4216050272      -10.5341712100        0.2413147543  SOLV      5412            0.0000000000
     16350      5423  TIP3      H2             12.1049316448      -10.9862013256       -1.1712089976  SOLV      5412            0.0000000000
     16351      5424  TIP3      OH2             6.0498578107       -8.9967018965       13.4680055126  SOLV      5413            0.0000000000
     16352      5424  TIP3      H1              6.1739003416       -8.0875972050       13.8118353590  SOLV      5413            0.0000000000
     16353      5424  TIP3      H2              5.1689537288       -9.1967329060       13.8482380926  SOLV      5413            0.0000000000
     16354      5425  TIP3      OH2             6.4874008528       -2.8631102270       13.3543211977  SOLV      5414            0.0000000000
     16355      5425  TIP3      H1              6.1437259248       -2.7818817949       12.4436025111  SOLV      5414            0.0000000000
     16356      5425  TIP3      H2              5.6737137368       -3.0810700364       13.8628379973  SOLV      5414            0.0000000000
     16357      5426  TIP3      OH2            15.0633889497       -5.0717062528       -4.2452337525  SOLV      5415            0.0000000000
     16358      5426  TIP3      H1             15.1860027190       -4.1199635552       -4.4250817883  SOLV      5415            0.0000000000
     16359      5426  TIP3      H2             15.9767643139       -5.4086964233       -4.3650361672  SOLV      5415            0.0000000000
     16360      5427  TIP3      OH2             2.2983575339       -7.5518302311       12.7819694088  SOLV      5416            0.0000000000
     16361      5427  TIP3      H1              1.6467781449       -7.7284459376       12.0831201998  SOLV      5416            0.0000000000
     16362      5427  TIP3      H2              2.6330219269       -8.4428261723       12.9928987837  SOLV      5416            0.0000000000
     16363      5428  TIP3      OH2             1.1335205902       -5.2420696526        8.6550863740  SOLV      5417            0.0000000000
     16364      5428  TIP3      H1              1.9578427251       -5.2428537834        9.1640663572  SOLV      5417            0.0000000000
     16365      5428  TIP3      H2              0.4651410234       -5.1416792622        9.3492218397  SOLV      5417            0.0000000000
     16366      5429  TIP3      OH2            19.4451602049       -1.0115847196        9.7262579028  SOLV      5418            0.0000000000
     16367      5429  TIP3      H1             19.4267260106       -1.9752663797        9.8721474471  SOLV      5418            0.0000000000
     16368      5429  TIP3      H2             18.6084327393       -0.7527185498       10.1737795149  SOLV      5418            0.0000000000
     16369      5430  TIP3      OH2            10.5092507854       -3.2426694263       11.0590014150  SOLV      5419            0.0000000000
     16370      5430  TIP3      H1             10.4655266547       -2.3093896095       11.3642060758  SOLV      5419            0.0000000000
     16371      5430  TIP3      H2              9.7862329802       -3.6408165016       11.5932892221  SOLV      5419            0.0000000000
     16372      5431  TIP3      OH2             2.5215999318       -3.4648321984        4.3958158070  SOLV      5420            0.0000000000
     16373      5431  TIP3      H1              3.0213942560       -3.5206354187        5.2396345561  SOLV      5420            0.0000000000
     16374      5431  TIP3      H2              1.7143228311       -3.9471662386        4.6362765648  SOLV      5420            0.0000000000
     16375      5432  TIP3      OH2            18.3370268853       -9.7861280438       12.4979318617  SOLV      5421            0.0000000000
     16376      5432  TIP3      H1             17.5252502447       -9.6694843016       11.9851455649  SOLV      5421            0.0000000000
     16377      5432  TIP3      H2             18.4893047790      -10.7512801182       12.4154299529  SOLV      5421            0.0000000000
     16378      5433  TIP3      OH2             4.3185071890       -5.6806591123       12.6252544654  SOLV      5422            0.0000000000
     16379      5433  TIP3      H1              4.7890546199       -5.8065163436       13.4715157609  SOLV      5422            0.0000000000
     16380      5433  TIP3      H2              3.5688188924       -6.3050053897       12.7144641186  SOLV      5422            0.0000000000
     16381      5434  TIP3      OH2             8.2993363283      -17.3959867422       10.4770946487  SOLV      5423            0.0000000000
     16382      5434  TIP3      H1              7.4050909651      -17.7887402366       10.3530788448  SOLV      5423            0.0000000000
     16383      5434  TIP3      H2              8.1443242563      -16.5095104966       10.1233883004  SOLV      5423            0.0000000000
     16384      5435  TIP3      OH2            13.6753102855      -16.3288754144       12.5257394030  SOLV      5424            0.0000000000
     16385      5435  TIP3      H1             14.3839054223      -16.5862909440       13.1480333715  SOLV      5424            0.0000000000
     16386      5435  TIP3      H2             12.8630956086      -16.4952614860       13.0389317309  SOLV      5424            0.0000000000
     16387      5436  TIP3      OH2            15.8896224040      -12.0434870774       11.5696504606  SOLV      5425            0.0000000000
     16388      5436  TIP3      H1             15.4534488359      -12.0333634919       12.4512545823  SOLV      5425            0.0000000000
     16389      5436  TIP3      H2             15.7772469389      -11.1188303802       11.2698638913  SOLV      5425            0.0000000000
     16390      5437  TIP3      OH2            12.6237485162      -10.8205821676       -2.7860394880  SOLV      5426            0.0000000000
     16391      5437  TIP3      H1             12.2711905398      -10.9896035019       -3.6809295574  SOLV      5426            0.0000000000
     16392      5437  TIP3      H2             13.4225784836      -10.3015727583       -3.0055266480  SOLV      5426            0.0000000000
     16393      5438  TIP3      OH2             9.7717689483      -17.0238335821        0.2661119839  SOLV      5427            0.0000000000
     16394      5438  TIP3      H1              9.3650648212      -17.0436017528        1.1538603437  SOLV      5427            0.0000000000
     16395      5438  TIP3      H2              9.3276414392      -17.7974185019       -0.1337357445  SOLV      5427            0.0000000000
     16396      5439  TIP3      OH2             6.4513670354      -13.4464621061        5.8800932921  SOLV      5428            0.0000000000
     16397      5439  TIP3      H1              5.5192386942      -13.7118165165        6.0458455861  SOLV      5428            0.0000000000
     16398      5439  TIP3      H2              6.5752690178      -13.8479974597        4.9889763939  SOLV      5428            0.0000000000
     16399      5440  TIP3      OH2            11.3563114006      -12.5666424661        3.1491836613  SOLV      5429            0.0000000000
     16400      5440  TIP3      H1             10.8619485759      -11.8446113013        2.7003073557  SOLV      5429            0.0000000000
     16401      5440  TIP3      H2             11.9095821120      -12.9040621901        2.4147033972  SOLV      5429            0.0000000000
     16402      5441  TIP3      OH2            13.1289661459       -9.8458408415       13.9111612697  SOLV      5430            0.0000000000
     16403      5441  TIP3      H1             12.9310092639      -10.5357034385       14.5803493631  SOLV      5430            0.0000000000
     16404      5441  TIP3      H2             14.0472584021       -9.6218457694       14.1533851108  SOLV      5430            0.0000000000
     16405      5442  TIP3      OH2            12.8372475504      -12.2868130427        5.5059202264  SOLV      5431            0.0000000000
     16406      5442  TIP3      H1             12.2905038827      -11.9605096906        4.7596375721  SOLV      5431            0.0000000000
     16407      5442  TIP3      H2             13.2128164914      -13.0748119933        5.0567574358  SOLV      5431            0.0000000000
     16408      5443  TIP3      OH2             6.3528123777      -17.2019237708       -0.0845335158  SOLV      5432            0.0000000000
     16409      5443  TIP3      H1              6.1850152473      -17.2082415296        0.8769777211  SOLV      5432            0.0000000000
     16410      5443  TIP3      H2              5.5824221595      -16.6815252937       -0.3954902419  SOLV      5432            0.0000000000
     16411      5444  TIP3      OH2             1.8080557726      -16.8360069884        8.6707339355  SOLV      5433            0.0000000000
     16412      5444  TIP3      H1              2.6097192560      -16.4038920531        9.0178443606  SOLV      5433            0.0000000000
     16413      5444  TIP3      H2              2.0554758358      -17.0895374051        7.7663295352  SOLV      5433            0.0000000000
     16414      5445  TIP3      OH2             1.3842273070      -16.9831999102        3.8245738510  SOLV      5434            0.0000000000
     16415      5445  TIP3      H1              1.8182619332      -16.6231831427        3.0202561428  SOLV      5434            0.0000000000
     16416      5445  TIP3      H2              0.7679970797      -16.2468034866        4.0082226537  SOLV      5434            0.0000000000
     16417      5446  TIP3      OH2            12.8704390806       -9.9025265141        9.7459979260  SOLV      5435            0.0000000000
     16418      5446  TIP3      H1             13.2546470560      -10.5972499185        9.1651588947  SOLV      5435            0.0000000000
     16419      5446  TIP3      H2             12.6258098563      -10.4414994182       10.5240161928  SOLV      5435            0.0000000000
     16420      5447  TIP3      OH2             9.7936587576      -15.2916670129        6.4357906294  SOLV      5436            0.0000000000
     16421      5447  TIP3      H1              8.9699651999      -15.2144350479        6.9484866594  SOLV      5436            0.0000000000
     16422      5447  TIP3      H2             10.4768251634      -15.2207287737        7.1236295017  SOLV      5436            0.0000000000
     16423      5448  TIP3      OH2             4.0515950244      -14.6281407443        6.5117837763  SOLV      5437            0.0000000000
     16424      5448  TIP3      H1              3.1151362501      -14.4983059751        6.2206701776  SOLV      5437            0.0000000000
     16425      5448  TIP3      H2              4.2085652365      -15.5625663078        6.3007172531  SOLV      5437            0.0000000000
     16426      5449  TIP3      OH2             6.7417444449      -14.6629774608        3.4430629571  SOLV      5438            0.0000000000
     16427      5449  TIP3      H1              7.6656935581      -14.5278822129        3.1648698303  SOLV      5438            0.0000000000
     16428      5449  TIP3      H2              6.2364885698      -14.4559656861        2.6206056123  SOLV      5438            0.0000000000
     16429      5450  TIP3      OH2            14.6488971858      -14.4584159438        8.4648807268  SOLV      5439            0.0000000000
     16430      5450  TIP3      H1             14.3780871008      -14.3201630018        9.4012110255  SOLV      5439            0.0000000000
     16431      5450  TIP3      H2             13.9387269159      -15.0530293800        8.1686677278  SOLV      5439            0.0000000000
     16432      5451  TIP3      OH2             5.2884142267      -14.2762164354        1.2015304676  SOLV      5440            0.0000000000
     16433      5451  TIP3      H1              4.5826815999      -14.7639191111        0.7387249547  SOLV      5440            0.0000000000
     16434      5451  TIP3      H2              5.7951923171      -13.9288853568        0.4355228317  SOLV      5440            0.0000000000
     16435      5452  TIP3      OH2            16.4070991377        2.4456707547       10.6992333287  SOLV      5441            0.0000000000
     16436      5452  TIP3      H1             16.3638693554        2.7068520304        9.7617470600  SOLV      5441            0.0000000000
     16437      5452  TIP3      H2             17.1954960471        2.9354374839       11.0035664326  SOLV      5441            0.0000000000
     16438      5453  TIP3      OH2             5.9617486736       -6.4936285433       14.8689498163  SOLV      5442            0.0000000000
     16439      5453  TIP3      H1              6.7437319580       -6.1737319920       15.3601806143  SOLV      5442            0.0000000000
     16440      5453  TIP3      H2              5.2952601146       -6.4856030143       15.5838434773  SOLV      5442            0.0000000000
     16441      5454  TIP3      OH2            10.6273817929      -11.9888061559        7.3272168106  SOLV      5443            0.0000000000
     16442      5454  TIP3      H1             11.2708038733      -12.1861015999        6.6232192221  SOLV      5443            0.0000000000
     16443      5454  TIP3      H2             11.1478933395      -12.1888183593        8.1163583218  SOLV      5443            0.0000000000
     16444      5455  TIP3      OH2             5.8616894771      -17.0636506760        6.3421348514  SOLV      5444            0.0000000000
     16445      5455  TIP3      H1              5.4293338328      -17.8082594335        6.8143762436  SOLV      5444            0.0000000000
     16446      5455  TIP3      H2              6.1093636213      -17.4814297522        5.5063498188  SOLV      5444            0.0000000000
     16447      5456  TIP3      OH2             9.8580985141      -12.8571874638       11.1372327051  SOLV      5445            0.0000000000
     16448      5456  TIP3      H1              9.5821965446      -12.1750830796       10.5130020398  SOLV      5445            0.0000000000
     16449      5456  TIP3      H2             10.7308061614      -12.5141382366       11.4075452103  SOLV      5445            0.0000000000
     16450      5457  TIP3      OH2             7.6968641566       -9.0452236489        1.3009722452  SOLV      5446            0.0000000000
     16451      5457  TIP3      H1              6.9625102492       -9.6760983474        1.1628108232  SOLV      5446            0.0000000000
     16452      5457  TIP3      H2              7.4711809570       -8.6953977758        2.1946049575  SOLV      5446            0.0000000000
     16453      5458  TIP3      OH2            16.6794755877       -6.6855115744        7.5387026855  SOLV      5447            0.0000000000
     16454      5458  TIP3      H1             16.9248648938       -6.1523909831        6.7515340910  SOLV      5447            0.0000000000
     16455      5458  TIP3      H2             15.8321161153       -7.0952871241        7.2562234376  SOLV      5447            0.0000000000
     16456      5459  TIP3      OH2            12.2986774199      -16.0313207984        0.0865953000  SOLV      5448            0.0000000000
     16457      5459  TIP3      H1             11.3295821728      -16.2159459876        0.0880841050  SOLV      5448            0.0000000000
     16458      5459  TIP3      H2             12.3358138603      -15.0636701245        0.2211703772  SOLV      5448            0.0000000000
     16459      5460  TIP3      OH2            11.5979978125       -5.8973593675       11.3343829327  SOLV      5449            0.0000000000
     16460      5460  TIP3      H1             12.0630594427       -5.8967983900       12.1807215263  SOLV      5449            0.0000000000
     16461      5460  TIP3      H2             11.2621662128       -4.9838123669       11.2798230881  SOLV      5449            0.0000000000
     16462      5461  TIP3      OH2            12.9374872637      -13.4096175251        0.9991689931  SOLV      5450            0.0000000000
     16463      5461  TIP3      H1             13.9010653353      -13.2987250577        1.0698521695  SOLV      5450            0.0000000000
     16464      5461  TIP3      H2             12.6755822283      -12.6242038351        0.4730872661  SOLV      5450            0.0000000000
     16465      5462  TIP3      OH2             4.6800755505       -8.8594303596        8.0874427275  SOLV      5451            0.0000000000
     16466      5462  TIP3      H1              5.0191776451       -9.1830279430        7.2307238239  SOLV      5451            0.0000000000
     16467      5462  TIP3      H2              5.0524053855       -9.4902992715        8.7153834154  SOLV      5451            0.0000000000
     16468      5463  TIP3      OH2             9.2141503213       -7.3202222185       -0.5120387803  SOLV      5452            0.0000000000
     16469      5463  TIP3      H1              8.9064767466       -6.3935383718       -0.5851227525  SOLV      5452            0.0000000000
     16470      5463  TIP3      H2              8.5555887311       -7.7405237040        0.0714433861  SOLV      5452            0.0000000000
     16471      5464  TIP3      OH2             3.4752616152       -9.7857278702       14.1113970556  SOLV      5453            0.0000000000
     16472      5464  TIP3      H1              3.5297397659       -9.8863920964       15.0833169714  SOLV      5453            0.0000000000
     16473      5464  TIP3      H2              2.6471226483      -10.2733307096       13.9289413996  SOLV      5453            0.0000000000
     16474      5465  TIP3      OH2            10.7553104085       -8.4547728476       14.2893193258  SOLV      5454            0.0000000000
     16475      5465  TIP3      H1             10.2602052680       -8.8200165067       13.5403920565  SOLV      5454            0.0000000000
     16476      5465  TIP3      H2             11.6533685627       -8.7948689014       14.0935953442  SOLV      5454            0.0000000000
     16477      5466  TIP3      OH2            13.2521812657       -3.3614003994       10.3253531929  SOLV      5455            0.0000000000
     16478      5466  TIP3      H1             12.2862691436       -3.2804504370       10.4205499890  SOLV      5455            0.0000000000
     16479      5466  TIP3      H2             13.5525048363       -2.7777135127       11.0539748590  SOLV      5455            0.0000000000
     16480      5467  TIP3      OH2            17.2740067307      -12.4689694779       -0.6375164551  SOLV      5456            0.0000000000
     16481      5467  TIP3      H1             16.7080000727      -12.9149817869       -1.3146339011  SOLV      5456            0.0000000000
     16482      5467  TIP3      H2             17.2642873642      -11.5744210855       -1.0514414996  SOLV      5456            0.0000000000
     16483      5468  TIP3      OH2            19.5599539430       -3.9401622847       10.1064469128  SOLV      5457            0.0000000000
     16484      5468  TIP3      H1             18.5833283195       -3.9942408156       10.0104982558  SOLV      5457            0.0000000000
     16485      5468  TIP3      H2             19.8305681896       -4.2372450608        9.2074450053  SOLV      5457            0.0000000000
     16486      5469  TIP3      OH2            14.5516674470       -4.2824372965       -1.5519830163  SOLV      5458            0.0000000000
     16487      5469  TIP3      H1             14.0424929988       -4.8476516229       -0.9518277757  SOLV      5458            0.0000000000
     16488      5469  TIP3      H2             14.5607227884       -4.7981769665       -2.3788481799  SOLV      5458            0.0000000000
     16489      5470  TIP3      OH2            14.3461797282       -8.0367445921        6.7373873000  SOLV      5459            0.0000000000
     16490      5470  TIP3      H1             13.3981722631       -8.2464964141        6.8528650132  SOLV      5459            0.0000000000
     16491      5470  TIP3      H2             14.6531327242       -8.8317448295        6.2596002384  SOLV      5459            0.0000000000
     16492      5471  TIP3      OH2             5.6485974789       -5.7449875985        4.2623570498  SOLV      5460            0.0000000000
     16493      5471  TIP3      H1              5.7138056540       -4.9594859971        3.6752154806  SOLV      5460            0.0000000000
     16494      5471  TIP3      H2              4.7365158176       -5.6415892314        4.5582776007  SOLV      5460            0.0000000000
     16495      5472  TIP3      OH2             1.2533107616      -12.7768051505        1.3067397979  SOLV      5461            0.0000000000
     16496      5472  TIP3      H1              1.2200534239      -11.8611062664        0.9988274994  SOLV      5461            0.0000000000
     16497      5472  TIP3      H2              0.5147588013      -12.7869378331        1.9591180635  SOLV      5461            0.0000000000
     16498      5473  TIP3      OH2             6.8600979542       -8.1615458796        3.7237343266  SOLV      5462            0.0000000000
     16499      5473  TIP3      H1              6.5462196759       -7.2376984421        3.8283577677  SOLV      5462            0.0000000000
     16500      5473  TIP3      H2              6.5877873035       -8.5503878487        4.5675003107  SOLV      5462            0.0000000000
     16501      5474  TIP3      OH2             8.3417470739       -2.3357210068        8.9548322204  SOLV      5463            0.0000000000
     16502      5474  TIP3      H1              8.7397806290       -1.5963585319        8.4454867053  SOLV      5463            0.0000000000
     16503      5474  TIP3      H2              9.1197399213       -2.6830948732        9.4164942685  SOLV      5463            0.0000000000
     16504      5475  TIP3      OH2             4.9206646689       -3.4062139400        2.9139238529  SOLV      5464            0.0000000000
     16505      5475  TIP3      H1              4.0177530645       -3.2934524253        3.2731241559  SOLV      5464            0.0000000000
     16506      5475  TIP3      H2              5.2376944377       -2.4761805396        2.9470747148  SOLV      5464            0.0000000000
     16507      5476  TIP3      OH2            12.1285422233       -6.0295934360        8.6444825679  SOLV      5465            0.0000000000
     16508      5476  TIP3      H1             12.0372751276       -6.0620341215        9.6220491919  SOLV      5465            0.0000000000
     16509      5476  TIP3      H2             13.0008615726       -6.4248224397        8.5164379827  SOLV      5465            0.0000000000
     16510      5477  TIP3      OH2            11.9921194275       -7.0046001709       -2.6196892300  SOLV      5466            0.0000000000
     16511      5477  TIP3      H1             12.4381340425       -7.2865767462       -1.7929597938  SOLV      5466            0.0000000000
     16512      5477  TIP3      H2             11.0594239947       -7.1299201436       -2.3876786320  SOLV      5466            0.0000000000
     16513      5478  TIP3      OH2            14.6567665777       -0.6969119567        9.0294805652  SOLV      5467            0.0000000000
     16514      5478  TIP3      H1             13.8170554448       -1.1868038555        8.9274577681  SOLV      5467            0.0000000000
     16515      5478  TIP3      H2             14.5498621394       -0.0195771207        8.3241237507  SOLV      5467            0.0000000000
     16516      5479  TIP3      OH2            15.2710621811       -2.2631624109       -4.4383528434  SOLV      5468            0.0000000000
     16517      5479  TIP3      H1             15.2420112112       -1.7677005385       -5.2824994894  SOLV      5468            0.0000000000
     16518      5479  TIP3      H2             14.3795413855       -2.0824508022       -4.1091698431  SOLV      5468            0.0000000000
     16519      5480  TIP3      OH2             5.8066225241      -14.3469143659       13.8311869244  SOLV      5469            0.0000000000
     16520      5480  TIP3      H1              4.9016770540      -14.2912762748       14.2041191142  SOLV      5469            0.0000000000
     16521      5480  TIP3      H2              6.2111871466      -14.9543439821       14.4808559374  SOLV      5469            0.0000000000
     16522      5481  TIP3      OH2            13.5700861726       -7.7279485678       -0.3877042871  SOLV      5470            0.0000000000
     16523      5481  TIP3      H1             13.4913585373       -8.4162629661        0.3000077730  SOLV      5470            0.0000000000
     16524      5481  TIP3      H2             14.5345690153       -7.7563590230       -0.5603820429  SOLV      5470            0.0000000000
     16525      5482  TIP3      OH2             2.8238729519       -3.7643049847       10.5716688591  SOLV      5471            0.0000000000
     16526      5482  TIP3      H1              3.3658523739       -4.4088784807       11.0553582764  SOLV      5471            0.0000000000
     16527      5482  TIP3      H2              2.9698255624       -2.9550021893       11.0776685344  SOLV      5471            0.0000000000
     16528      5483  TIP3      OH2             5.2331034605       -7.3023192887       -2.6663026105  SOLV      5472            0.0000000000
     16529      5483  TIP3      H1              5.6905415811       -8.1142998109       -2.9265232350  SOLV      5472            0.0000000000
     16530      5483  TIP3      H2              5.3352235016       -7.3218520052       -1.6955354736  SOLV      5472            0.0000000000
     16531      5484  TIP3      OH2             5.2587022022       -7.2562415751        0.0940272047  SOLV      5473            0.0000000000
     16532      5484  TIP3      H1              6.0024653483       -7.2809871842        0.7049612012  SOLV      5473            0.0000000000
     16533      5484  TIP3      H2              5.0349660314       -6.2933097670        0.1273022467  SOLV      5473            0.0000000000
     16534      5485  TIP3      OH2            13.9265692184      -13.9753818766       11.0520867752  SOLV      5474            0.0000000000
     16535      5485  TIP3      H1             14.7050153048      -13.4801821387       11.3719853845  SOLV      5474            0.0000000000
     16536      5485  TIP3      H2             13.8809304642      -14.7361222011       11.6672470717  SOLV      5474            0.0000000000
     16537      5486  TIP3      OH2            12.6865842098      -16.4182237767        2.8923005330  SOLV      5475            0.0000000000
     16538      5486  TIP3      H1             12.5988066578      -16.3388489577        1.9210225952  SOLV      5475            0.0000000000
     16539      5486  TIP3      H2             13.0583464413      -15.5435393229        3.1287892170  SOLV      5475            0.0000000000
     16540      5487  TIP3      OH2             9.6098315914      -14.6111424424        3.7468868935  SOLV      5476            0.0000000000
     16541      5487  TIP3      H1             10.2202574779      -13.8652437034        3.5555932505  SOLV      5476            0.0000000000
     16542      5487  TIP3      H2              9.6544387751      -14.6561133042        4.7229518226  SOLV      5476            0.0000000000
     16543      5488  TIP3      OH2            12.2936334753      -11.5646548852       11.8795351084  SOLV      5477            0.0000000000
     16544      5488  TIP3      H1             12.5538276880      -10.9416531123       12.5934184978  SOLV      5477            0.0000000000
     16545      5488  TIP3      H2             12.9601111952      -12.2658014277       11.9781040863  SOLV      5477            0.0000000000
     16546      5489  TIP3      OH2            10.9867904658      -17.3881180339        4.7992113063  SOLV      5478            0.0000000000
     16547      5489  TIP3      H1             10.7668074418      -16.5592670261        5.2715234153  SOLV      5478            0.0000000000
     16548      5489  TIP3      H2             11.5982973579      -17.0398039725        4.1035004303  SOLV      5478            0.0000000000
     16549      5490  TIP3      OH2             4.7896169189       -4.6514110822        0.4100827360  SOLV      5479            0.0000000000
     16550      5490  TIP3      H1              5.0178122393       -4.0358103228       -0.2980077864  SOLV      5479            0.0000000000
     16551      5490  TIP3      H2              4.9538525033       -4.1185075686        1.2139693770  SOLV      5479            0.0000000000
     16552      5491  TIP3      OH2             6.1293374622      -17.3243186108        2.6898365408  SOLV      5480            0.0000000000
     16553      5491  TIP3      H1              6.1026966203      -16.4157445184        3.0473215726  SOLV      5480            0.0000000000
     16554      5491  TIP3      H2              7.0950214098      -17.4866460163        2.7403467429  SOLV      5480            0.0000000000
     16555      5492  TIP3      OH2            18.6047811549      -12.4324961905       11.7319101743  SOLV      5481            0.0000000000
     16556      5492  TIP3      H1             17.6321271856      -12.5148023342       11.6442364752  SOLV      5481            0.0000000000
     16557      5492  TIP3      H2             18.9037389219      -12.6382306752       10.8359972480  SOLV      5481            0.0000000000
     16558      5493  TIP3      OH2            15.1793764888      -10.4927765046        5.5403202237  SOLV      5482            0.0000000000
     16559      5493  TIP3      H1             14.4282398598      -11.0970832594        5.6513650542  SOLV      5482            0.0000000000
     16560      5493  TIP3      H2             15.9057164108      -10.9544316955        6.0114134599  SOLV      5482            0.0000000000
     16561      5494  TIP3      OH2             2.3628725345       -8.1922201789        0.4759431173  SOLV      5483            0.0000000000
     16562      5494  TIP3      H1              2.8287258858       -7.3796554455        0.2057953387  SOLV      5483            0.0000000000
     16563      5494  TIP3      H2              2.7679446067       -8.8071441091       -0.1788166760  SOLV      5483            0.0000000000
     16564      5495  TIP3      OH2             1.7417040814      -15.4951855204        1.5693593350  SOLV      5484            0.0000000000
     16565      5495  TIP3      H1              1.7902790084      -14.5196622660        1.5753590618  SOLV      5484            0.0000000000
     16566      5495  TIP3      H2              0.9746610207      -15.6458634622        1.0034807894  SOLV      5484            0.0000000000
     16567      5496  TIP3      OH2            14.9189289921       -0.9003879682        5.0278889224  SOLV      5485            0.0000000000
     16568      5496  TIP3      H1             14.4623598739       -0.4620613308        4.2724296745  SOLV      5485            0.0000000000
     16569      5496  TIP3      H2             15.8540039420       -0.7202795141        4.7849343293  SOLV      5485            0.0000000000
     16570      5497  TIP3      OH2             5.6924054999      -18.2510071544       10.2637183324  SOLV      5486            0.0000000000
     16571      5497  TIP3      H1              5.3758203072      -18.5910884821        9.3971125578  SOLV      5486            0.0000000000
     16572      5497  TIP3      H2              5.5557142020      -19.0333537471       10.8406821482  SOLV      5486            0.0000000000
     16573      5498  TIP3      OH2             1.0571377653       -6.3765998071        4.0947691186  SOLV      5487            0.0000000000
     16574      5498  TIP3      H1              0.5784006351       -5.9483973575        4.9533456984  SOLV      5487            0.0000000000
     16575      5498  TIP3      H2              0.5937256402       -5.7538634470        3.3497754465  SOLV      5487            0.0000000000
     16576      5499  TIP3      OH2             2.6307918856       -0.5501791485       14.8013931479  SOLV      5488            0.0000000000
     16577      5499  TIP3      H1              3.4980107370       -0.5630819670       15.2645430631  SOLV      5488            0.0000000000
     16578      5499  TIP3      H2              2.4120837018       -1.4965940469       14.7814197167  SOLV      5488            0.0000000000
     16579      5500  TIP3      OH2             7.3803846958       -1.0644119433       15.2808074564  SOLV      5489            0.0000000000
     16580      5500  TIP3      H1              8.3393046629       -1.1866924191       15.2833021066  SOLV      5489            0.0000000000
     16581      5500  TIP3      H2              7.1177828096       -1.6766207315       14.5628813035  SOLV      5489            0.0000000000
     16582      5501  TIP3      OH2            13.7966941023       -1.9128993822       12.6055494775  SOLV      5490            0.0000000000
     16583      5501  TIP3      H1             13.7490763793       -2.6082601456       13.3018978071  SOLV      5490            0.0000000000
     16584      5501  TIP3      H2             14.5684373674       -1.3865932432       12.8925588250  SOLV      5490            0.0000000000
     16585      5502  TIP3      OH2            11.5285481138       -4.7388953165       -4.4928835296  SOLV      5491            0.0000000000
     16586      5502  TIP3      H1             11.8249544926       -5.2970443288       -3.7559831470  SOLV      5491            0.0000000000
     16587      5502  TIP3      H2             12.1574266225       -4.9452834501       -5.2052000747  SOLV      5491            0.0000000000
     16588      5503  TIP3      OH2             3.9036749943       -6.5350453776       16.7776452108  SOLV      5492            0.0000000000
     16589      5503  TIP3      H1              4.0331497266       -7.4970295166       16.8690141667  SOLV      5492            0.0000000000
     16590      5503  TIP3      H2              3.0315214293       -6.4973073968       16.3269298373  SOLV      5492            0.0000000000
     16591      5504  TIP3      OH2             3.6637699128      -10.0477185694       -1.1853735246  SOLV      5493            0.0000000000
     16592      5504  TIP3      H1              4.3212238012      -10.2331583892       -0.4985318018  SOLV      5493            0.0000000000
     16593      5504  TIP3      H2              4.2646119047       -9.9521160396       -1.9602691541  SOLV      5493            0.0000000000
     16594      5505  TIP3      OH2             9.9758785780       -5.6575230728       14.5509639317  SOLV      5494            0.0000000000
     16595      5505  TIP3      H1              9.5663511484       -5.4120323340       13.6935070826  SOLV      5494            0.0000000000
     16596      5505  TIP3      H2             10.2887130142       -6.5688821248       14.3886503786  SOLV      5494            0.0000000000
     16597      5506  TIP3      OH2             8.8028410961       -8.0891203124       -3.2563449907  SOLV      5495            0.0000000000
     16598      5506  TIP3      H1              8.8010726948       -7.8548556210       -2.3119327515  SOLV      5495            0.0000000000
     16599      5506  TIP3      H2              8.8084651153       -9.0668321057       -3.2223597487  SOLV      5495            0.0000000000
     16600      5507  TIP3      OH2            14.8914974634       -5.5722903816       10.6044049233  SOLV      5496            0.0000000000
     16601      5507  TIP3      H1             15.6744921361       -5.1782729268       10.1706477674  SOLV      5496            0.0000000000
     16602      5507  TIP3      H2             14.2396014049       -4.8508493352       10.4663639526  SOLV      5496            0.0000000000
     16603      5508  TIP3      OH2             5.1097406943       -9.1509760632       16.6472151084  SOLV      5497            0.0000000000
     16604      5508  TIP3      H1              5.8503309686       -9.7138686168       16.4002078019  SOLV      5497            0.0000000000
     16605      5508  TIP3      H2              5.4040292285       -8.8166272102       17.5211166906  SOLV      5497            0.0000000000
     16606      5509  TIP3      OH2             5.7894863146      -11.1566380504        1.0433849701  SOLV      5498            0.0000000000
     16607      5509  TIP3      H1              5.4179120701      -11.8944767925        1.5435111787  SOLV      5498            0.0000000000
     16608      5509  TIP3      H2              6.2308249866      -11.6506153639        0.3213635295  SOLV      5498            0.0000000000
     16609      5510  TIP3      OH2             8.1017271218      -10.8462613071       12.8436779489  SOLV      5499            0.0000000000
     16610      5510  TIP3      H1              7.4546537512      -10.1289979371       13.0246489286  SOLV      5499            0.0000000000
     16611      5510  TIP3      H2              8.7646483099      -10.3534716335       12.3069646886  SOLV      5499            0.0000000000
     16612      5511  TIP3      OH2             6.8195168532      -13.0237171175       -0.6969227350  SOLV      5500            0.0000000000
     16613      5511  TIP3      H1              6.5647351108      -12.9289243877       -1.6415465124  SOLV      5500            0.0000000000
     16614      5511  TIP3      H2              7.7979070582      -13.0276276087       -0.7719689100  SOLV      5500            0.0000000000
     16615      5512  TIP3      OH2            13.5902000384       -6.3871799540       14.5635370469  SOLV      5501            0.0000000000
     16616      5512  TIP3      H1             14.4226714103       -6.6078489244       14.1294791072  SOLV      5501            0.0000000000
     16617      5512  TIP3      H2             13.5855022569       -6.9984953238       15.3230085857  SOLV      5501            0.0000000000
     16618      5513  TIP3      OH2            14.9711443981       -9.8165009212       -3.9431498235  SOLV      5502            0.0000000000
     16619      5513  TIP3      H1             14.7839737712      -10.2187995703       -4.8153618995  SOLV      5502            0.0000000000
     16620      5513  TIP3      H2             14.6509739494       -8.9008715057       -4.1311329497  SOLV      5502            0.0000000000
     16621      5514  TIP3      OH2             9.7084921609      -12.4133027419       14.4238096439  SOLV      5503            0.0000000000
     16622      5514  TIP3      H1             10.1308884502      -12.9611180413       13.7513296675  SOLV      5503            0.0000000000
     16623      5514  TIP3      H2              9.1768985145      -11.8087078512       13.8586776709  SOLV      5503            0.0000000000
     16624      5515  TIP3      OH2             9.9238944909       -9.2763671700       11.4467759332  SOLV      5504            0.0000000000
     16625      5515  TIP3      H1             10.7736586876       -9.0409333844       11.0458254017  SOLV      5504            0.0000000000
     16626      5515  TIP3      H2              9.3196735836       -8.6764487379       10.9523761275  SOLV      5504            0.0000000000
     16627      5516  TIP3      OH2            15.7777034537       -9.6007532480       15.0442396744  SOLV      5505            0.0000000000
     16628      5516  TIP3      H1             16.3490984633      -10.3611978303       15.2299172560  SOLV      5505            0.0000000000
     16629      5516  TIP3      H2             16.4160646076       -8.9514795734       14.7118206214  SOLV      5505            0.0000000000
     16630      5517  TIP3      OH2            16.1957554431       -7.0981627651       12.4041628298  SOLV      5506            0.0000000000
     16631      5517  TIP3      H1             15.6129392435       -6.5290006258       11.8454234306  SOLV      5506            0.0000000000
     16632      5517  TIP3      H2             17.0743317227       -6.8449431130       12.0371634686  SOLV      5506            0.0000000000
     16633      5518  TIP3      OH2             8.4848827702      -11.4583290892       16.8602388629  SOLV      5507            0.0000000000
     16634      5518  TIP3      H1              7.7655413323      -12.0887924325       17.0671237046  SOLV      5507            0.0000000000
     16635      5518  TIP3      H2              8.7447004881      -11.7387082081       15.9634746084  SOLV      5507            0.0000000000
     16636      5519  TIP3      OH2            10.9643323098      -16.9925837833       13.2334611755  SOLV      5508            0.0000000000
     16637      5519  TIP3      H1             10.4937301547      -16.4062061999       12.6286124057  SOLV      5508            0.0000000000
     16638      5519  TIP3      H2             10.3570888301      -17.7644561601       13.2378140088  SOLV      5508            0.0000000000
     16639      5520  TIP3      OH2            12.3470607420      -11.9541024729       15.4851989991  SOLV      5509            0.0000000000
     16640      5520  TIP3      H1             12.3453652519      -12.0229687389       16.4554121777  SOLV      5509            0.0000000000
     16641      5520  TIP3      H2             11.3984857626      -12.1108082788       15.3071150932  SOLV      5509            0.0000000000
     16642      5521  TIP3      OH2            14.6130572181      -12.5285681692       13.9077328443  SOLV      5510            0.0000000000
     16643      5521  TIP3      H1             13.9161366888      -12.4361444190       14.5869677112  SOLV      5510            0.0000000000
     16644      5521  TIP3      H2             15.3918930428      -12.7749992661       14.4555316513  SOLV      5510            0.0000000000
     16645      5522  TIP3      OH2            16.8126421111      -13.1198241709       15.4370926349  SOLV      5511            0.0000000000
     16646      5522  TIP3      H1             17.0625909610      -14.0332166622       15.6681975109  SOLV      5511            0.0000000000
     16647      5522  TIP3      H2             16.8562564001      -12.6532057284       16.2994251464  SOLV      5511            0.0000000000
     16648      5523  TIP3      OH2             6.8572049727      -13.6495237960       17.3777616227  SOLV      5512            0.0000000000
     16649      5523  TIP3      H1              6.8593932181      -14.5898778728       17.1083778885  SOLV      5512            0.0000000000
     16650      5523  TIP3      H2              7.2399447241      -13.7207468015       18.2781306503  SOLV      5512            0.0000000000
     16651      5524  TIP3      OH2            12.0042962321      -16.8600473829       15.8073446336  SOLV      5513            0.0000000000
     16652      5524  TIP3      H1             12.5825396013      -17.6437419283       15.7354905829  SOLV      5513            0.0000000000
     16653      5524  TIP3      H2             11.5436135458      -16.8866969594       14.9455814433  SOLV      5513            0.0000000000
     16654      5525  TIP3      OH2            12.6485299774      -14.7506326576       17.4427216350  SOLV      5514            0.0000000000
     16655      5525  TIP3      H1             12.4319023782      -15.4279674521       16.7648431480  SOLV      5514            0.0000000000
     16656      5525  TIP3      H2             11.8569706699      -14.1681682101       17.4020567737  SOLV      5514            0.0000000000
     16657      5526  TIP3      OH2            -0.3049662416       -8.7925370338        0.7305816636  SOLV      5515            0.0000000000
     16658      5526  TIP3      H1              0.5657455548       -8.4660754648        0.4313188112  SOLV      5515            0.0000000000
     16659      5526  TIP3      H2             -0.4421208609       -9.5454245040        0.1180671401  SOLV      5515            0.0000000000
     16660      5527  TIP3      OH2            -1.0732829092       -2.6363246270        4.4697362367  SOLV      5516            0.0000000000
     16661      5527  TIP3      H1             -1.8947917458       -3.1105838830        4.2144596719  SOLV      5516            0.0000000000
     16662      5527  TIP3      H2             -0.7827054608       -3.1724158582        5.2420137669  SOLV      5516            0.0000000000
     16663      5528  TIP3      OH2             0.2096787726       -4.0458910537        6.4346472578  SOLV      5517            0.0000000000
     16664      5528  TIP3      H1              0.1607376300       -4.7360745725        7.1308335814  SOLV      5517            0.0000000000
     16665      5528  TIP3      H2              0.6670850346       -3.3791159532        6.9731125226  SOLV      5517            0.0000000000
     16666      5529  TIP3      OH2            17.4922506416       -0.0845846207        4.6244508210  SOLV      5518            0.0000000000
     16667      5529  TIP3      H1             17.7118188562        0.2680432352        5.5060889196  SOLV      5518            0.0000000000
     16668      5529  TIP3      H2             18.0776223606        0.4247114946        4.0456463369  SOLV      5518            0.0000000000
     16669      5530  TIP3      OH2            17.7020185989        0.1771750430        7.4381592347  SOLV      5519            0.0000000000
     16670      5530  TIP3      H1             17.2554275154       -0.6947540555        7.3843037558  SOLV      5519            0.0000000000
     16671      5530  TIP3      H2             18.4594559038       -0.0625583152        7.9941402625  SOLV      5519            0.0000000000
     16672      5531  TIP3      OH2            18.1845189045       -3.0578154220       13.1661300148  SOLV      5520            0.0000000000
     16673      5531  TIP3      H1             17.4711454045       -2.9378126210       13.8260040878  SOLV      5520            0.0000000000
     16674      5531  TIP3      H2             18.6202716401       -2.1812217513       13.1897752317  SOLV      5520            0.0000000000
     16675      5532  TIP3      OH2            16.3549761645       -7.9519150206       -0.6697941549  SOLV      5521            0.0000000000
     16676      5532  TIP3      H1             16.9743677462       -7.2717957409       -1.0040786924  SOLV      5521            0.0000000000
     16677      5532  TIP3      H2             16.8476540610       -8.2948657597        0.1068851927  SOLV      5521            0.0000000000
     16678      5533  TIP3      OH2            17.6721129928       -9.2757262063        1.3722610008  SOLV      5522            0.0000000000
     16679      5533  TIP3      H1             16.9789092720       -9.6219021748        1.9739500963  SOLV      5522            0.0000000000
     16680      5533  TIP3      H2             18.3222471188       -8.8886032922        1.9949112771  SOLV      5522            0.0000000000
     16681      5534  TIP3      OH2            18.2201660482       -5.2952460860        5.7098040839  SOLV      5523            0.0000000000
     16682      5534  TIP3      H1             18.7149760662       -5.9788397178        5.2185883903  SOLV      5523            0.0000000000
     16683      5534  TIP3      H2             18.1861758306       -4.5604691214        5.0637653781  SOLV      5523            0.0000000000
     16684      5535  TIP3      OH2            16.4511524617       -2.3203811016        7.6433262548  SOLV      5524            0.0000000000
     16685      5535  TIP3      H1             15.7251250692       -1.8753317168        8.1236838165  SOLV      5524            0.0000000000
     16686      5535  TIP3      H2             15.9712506411       -2.7485559173        6.9016432432  SOLV      5524            0.0000000000
     16687      5536  TIP3      OH2            17.0027354301      -10.1822250095       -2.1605710756  SOLV      5525            0.0000000000
     16688      5536  TIP3      H1             16.3006860973      -10.1675282167       -2.8516798153  SOLV      5525            0.0000000000
     16689      5536  TIP3      H2             16.7106668960       -9.4122386426       -1.6278119113  SOLV      5525            0.0000000000
     16690      5537  TIP3      OH2            15.7130093933      -13.4352725766       -2.6091857724  SOLV      5526            0.0000000000
     16691      5537  TIP3      H1             15.2804867677      -13.0386711579       -3.3744312426  SOLV      5526            0.0000000000
     16692      5537  TIP3      H2             15.4730920435      -14.3807779084       -2.7279076940  SOLV      5526            0.0000000000
     16693      5538  TIP3      OH2            15.7534897283      -10.5766495108        2.8594080551  SOLV      5527            0.0000000000
     16694      5538  TIP3      H1             15.8407449399      -11.5380435129        2.7654777592  SOLV      5527            0.0000000000
     16695      5538  TIP3      H2             15.5963911957      -10.4655700509        3.8236977154  SOLV      5527            0.0000000000
     16696      5539  TIP3      OH2             2.1254269025      -10.4611351418       10.5007807907  SOLV      5528            0.0000000000
     16697      5539  TIP3      H1              1.7329272839      -10.0238730110        9.7212487028  SOLV      5528            0.0000000000
     16698      5539  TIP3      H2              3.0754601644      -10.2481389108       10.4069314286  SOLV      5528            0.0000000000
     16699      5540  TIP3      OH2            18.6651258152       -6.4096210196       11.4102332375  SOLV      5529            0.0000000000
     16700      5540  TIP3      H1             19.3773039273       -7.0760999480       11.2854649581  SOLV      5529            0.0000000000
     16701      5540  TIP3      H2             18.9143458349       -5.7177934776       10.7744679758  SOLV      5529            0.0000000000
     16702      5541  TIP3      OH2            20.4596320954       -8.4430088398       11.4580453918  SOLV      5530            0.0000000000
     16703      5541  TIP3      H1             19.7426160758       -8.9305388136       11.9170968299  SOLV      5530            0.0000000000
     16704      5541  TIP3      H2             21.2149634865       -9.0446658009       11.6273735908  SOLV      5530            0.0000000000
     16705      5542  TIP3      OH2            15.1165290607      -16.0840504139       -2.7805056584  SOLV      5531            0.0000000000
     16706      5542  TIP3      H1             15.8285597559      -16.4353263660       -2.2125340817  SOLV      5531            0.0000000000
     16707      5542  TIP3      H2             14.3753152830      -16.6984373391       -2.6491868334  SOLV      5531            0.0000000000
     16708      5543  TIP3      OH2            15.8247548608      -13.3681738135        1.7869353240  SOLV      5532            0.0000000000
     16709      5543  TIP3      H1             16.5043283820      -13.9922048537        2.0754667873  SOLV      5532            0.0000000000
     16710      5543  TIP3      H2             16.2360047228      -13.0209836545        0.9678394051  SOLV      5532            0.0000000000
     16711      5544  TIP3      OH2            17.3095800015      -11.8180485573        6.7376247787  SOLV      5533            0.0000000000
     16712      5544  TIP3      H1             18.1622868124      -11.5809661997        6.3026898058  SOLV      5533            0.0000000000
     16713      5544  TIP3      H2             17.4763432277      -11.4158745478        7.6133558053  SOLV      5533            0.0000000000
     16714      5545  TIP3      OH2            18.0303782148      -10.3318950141        9.0196226472  SOLV      5534            0.0000000000
     16715      5545  TIP3      H1             17.2746262662       -9.9539329674        9.5065865605  SOLV      5534            0.0000000000
     16716      5545  TIP3      H2             18.3796565749       -9.5346161581        8.5588211368  SOLV      5534            0.0000000000
     16717      5546  TIP3      OH2             4.2170282522      -13.1323893140       16.9815153743  SOLV      5535            0.0000000000
     16718      5546  TIP3      H1              5.1868646568      -13.1611624458       17.1257003136  SOLV      5535            0.0000000000
     16719      5546  TIP3      H2              3.9542366254      -13.9810612887       17.3893593226  SOLV      5535            0.0000000000
     16720      5547  TIP3      OH2            22.4501895524      -14.4852740772       14.5757544490  SOLV      5536            0.0000000000
     16721      5547  TIP3      H1             23.1235194695      -15.0813419885       14.1808710598  SOLV      5536            0.0000000000
     16722      5547  TIP3      H2             22.2064130134      -13.9204935421       13.8124428374  SOLV      5536            0.0000000000
     16723      5548  TIP3      OH2             4.1005334731      -15.9644371301       10.0752123114  SOLV      5537            0.0000000000
     16724      5548  TIP3      H1              4.5246727248      -16.8406692940       10.1700553937  SOLV      5537            0.0000000000
     16725      5548  TIP3      H2              4.3725763704      -15.5292915711       10.8888984880  SOLV      5537            0.0000000000
     16726      5549  TIP3      OH2             1.8858487005      -13.3957439692       11.1180098458  SOLV      5538            0.0000000000
     16727      5549  TIP3      H1              2.2725804012      -13.3694635977       10.2219934290  SOLV      5538            0.0000000000
     16728      5549  TIP3      H2              1.8320892084      -12.4421692227       11.2980402412  SOLV      5538            0.0000000000
     16729      5550  TIP3      OH2            21.2137378135      -13.0463273055       12.6192313531  SOLV      5539            0.0000000000
     16730      5550  TIP3      H1             20.3778273450      -12.5985603959       12.8585421680  SOLV      5539            0.0000000000
     16731      5550  TIP3      H2             20.8656435230      -13.7757943379       12.0695819572  SOLV      5539            0.0000000000
     16732      5551  TIP3      OH2            17.5862240376      -16.6444656950       -1.4548182590  SOLV      5540            0.0000000000
     16733      5551  TIP3      H1             17.9528863105      -17.3789005904       -1.9793131555  SOLV      5540            0.0000000000
     16734      5551  TIP3      H2             18.2632196861      -15.9505561776       -1.5569902482  SOLV      5540            0.0000000000
     16735      5552  TIP3      OH2             1.6872613893      -18.3284986264        6.1443933007  SOLV      5541            0.0000000000
     16736      5552  TIP3      H1              0.7533215659      -18.4580838598        6.3864613753  SOLV      5541            0.0000000000
     16737      5552  TIP3      H2              1.6077694835      -17.7734494491        5.3385643632  SOLV      5541            0.0000000000
     16738      5553  TIP3      OH2            13.1449607676       -1.2612899402        1.0730639882  SOLV      5542            0.0000000000
     16739      5553  TIP3      H1             13.7429502330       -1.3839822482        0.3155282697  SOLV      5542            0.0000000000
     16740      5553  TIP3      H2             13.6457489436       -0.6544768269        1.6419171711  SOLV      5542            0.0000000000
     16741      5554  TIP3      OH2             3.8931856487      -17.6162642062       14.1933139571  SOLV      5543            0.0000000000
     16742      5554  TIP3      H1              3.4062458604      -17.6470229889       15.0347022370  SOLV      5543            0.0000000000
     16743      5554  TIP3      H2              3.2174197041      -17.2050503786       13.6136729226  SOLV      5543            0.0000000000
     16744      5555  TIP3      OH2             4.2735582731       -3.3253456780       14.9772693334  SOLV      5544            0.0000000000
     16745      5555  TIP3      H1              3.3272319955       -3.5170959797       14.8292477561  SOLV      5544            0.0000000000
     16746      5555  TIP3      H2              4.3534859619       -3.4585240123       15.9289969283  SOLV      5544            0.0000000000
     16747      5556  TIP3      OH2             6.1180085360       -2.9440815903       10.4834298169  SOLV      5545            0.0000000000
     16748      5556  TIP3      H1              5.5884648116       -2.2193548016       10.0895482949  SOLV      5545            0.0000000000
     16749      5556  TIP3      H2              6.9582507016       -2.7693896603       10.0113795368  SOLV      5545            0.0000000000
     16750      5557  TIP3      OH2            10.4579100897       -0.5672182136       11.8283303806  SOLV      5546            0.0000000000
     16751      5557  TIP3      H1             10.8716327598       -0.5470562835       12.7181017599  SOLV      5546            0.0000000000
     16752      5557  TIP3      H2             11.1002550618       -0.0250244493       11.3208612484  SOLV      5546            0.0000000000
     16753      5558  TIP3      OH2            12.2520001420        1.0149529594       10.4936989090  SOLV      5547            0.0000000000
     16754      5558  TIP3      H1             12.9501208105        0.5449194289       10.0176184066  SOLV      5547            0.0000000000
     16755      5558  TIP3      H2             12.7876861515        1.5776163136       11.0959759363  SOLV      5547            0.0000000000
     16756      5559  TIP3      OH2            20.2414698534      -15.4266434698       11.4660127375  SOLV      5548            0.0000000000
     16757      5559  TIP3      H1             19.3662997767      -15.5221401204       11.0560356997  SOLV      5548            0.0000000000
     16758      5559  TIP3      H2             20.6051757751      -16.3379146078       11.3638007858  SOLV      5548            0.0000000000
     16759      5560  TIP3      OH2             2.8246426051       -0.3932306542       10.7530193968  SOLV      5549            0.0000000000
     16760      5560  TIP3      H1              1.9241485509       -0.1056084267       10.4809833744  SOLV      5549            0.0000000000
     16761      5560  TIP3      H2              2.9102413424        0.0970066146       11.5810658901  SOLV      5549            0.0000000000
     16762      5561  TIP3      OH2             5.1868158253       -0.6217745424        9.3204185773  SOLV      5550            0.0000000000
     16763      5561  TIP3      H1              4.3094211736       -0.4995273124        9.7486580935  SOLV      5550            0.0000000000
     16764      5561  TIP3      H2              5.0028288985       -0.3142080515        8.4120156018  SOLV      5550            0.0000000000
     16765      5562  TIP3      OH2             9.4244824425       -0.3755502004        7.3158081709  SOLV      5551            0.0000000000
     16766      5562  TIP3      H1              8.7588208588       -0.2182223952        6.6193159731  SOLV      5551            0.0000000000
     16767      5562  TIP3      H2              9.5259938887        0.5231706321        7.6926429984  SOLV      5551            0.0000000000
     16768      5563  TIP3      OH2            12.1201927567       -1.0014029136        7.8335085637  SOLV      5552            0.0000000000
     16769      5563  TIP3      H1             11.1794253498       -0.8085559694        7.6418568122  SOLV      5552            0.0000000000
     16770      5563  TIP3      H2             12.5624460950       -0.3025120258        7.3245700318  SOLV      5552            0.0000000000
     16771      5564  TIP3      OH2            14.1914626608        0.9520599186        6.9246251668  SOLV      5553            0.0000000000
     16772      5564  TIP3      H1             14.0329092075        1.7930025456        6.4448242382  SOLV      5553            0.0000000000
     16773      5564  TIP3      H2             14.4555593355        0.3524066035        6.1911737383  SOLV      5553            0.0000000000
     16774      5565  TIP3      OH2             1.9928336021       -2.4030426681        8.1442727807  SOLV      5554            0.0000000000
     16775      5565  TIP3      H1              2.1405324425       -2.8122539823        9.0203280055  SOLV      5554            0.0000000000
     16776      5565  TIP3      H2              2.6462414234       -2.9191418349        7.6237429238  SOLV      5554            0.0000000000
     16777      5566  TIP3      OH2             3.8844348999       -3.7813415708        6.7168838759  SOLV      5555            0.0000000000
     16778      5566  TIP3      H1              4.0145886227       -4.5771335908        7.2859707991  SOLV      5555            0.0000000000
     16779      5566  TIP3      H2              4.7810807412       -3.3872842387        6.7269381660  SOLV      5555            0.0000000000
     16780      5567  TIP3      OH2             6.5256247364       -2.8167954944        6.8427151710  SOLV      5556            0.0000000000
     16781      5567  TIP3      H1              6.8761008384       -3.7111851506        6.7052891199  SOLV      5556            0.0000000000
     16782      5567  TIP3      H2              7.0138605202       -2.5653885939        7.6498085195  SOLV      5556            0.0000000000
     16783      5568  TIP3      OH2            12.2824017997      -16.2248235807        7.7918979699  SOLV      5557            0.0000000000
     16784      5568  TIP3      H1             11.8314826057      -16.9714344388        8.2230122505  SOLV      5557            0.0000000000
     16785      5568  TIP3      H2             12.9933131266      -16.6667831761        7.2946806574  SOLV      5557            0.0000000000
     16786      5569  TIP3      OH2            17.4126274669      -17.7615123002        6.4492979640  SOLV      5558            0.0000000000
     16787      5569  TIP3      H1             17.8465054967      -17.1055257601        5.8537786243  SOLV      5558            0.0000000000
     16788      5569  TIP3      H2             16.5319523063      -17.3654260046        6.5624937680  SOLV      5558            0.0000000000
     16789      5570  TIP3      OH2            18.3691637601      -16.5029502111        4.2619992219  SOLV      5559            0.0000000000
     16790      5570  TIP3      H1             19.0961333235      -17.0184042290        3.8530548182  SOLV      5559            0.0000000000
     16791      5570  TIP3      H2             18.6897626041      -15.5916393028        4.0899806233  SOLV      5559            0.0000000000
     16792      5571  TIP3      OH2             4.7747378727      -19.1667210429        7.8066030854  SOLV      5560            0.0000000000
     16793      5571  TIP3      H1              3.8379521033      -19.4648413066        7.8324424526  SOLV      5560            0.0000000000
     16794      5571  TIP3      H2              5.2236752053      -20.0363349811        7.7385435682  SOLV      5560            0.0000000000
     16795      5572  TIP3      OH2             2.7429805030      -20.4402810761        4.3199649854  SOLV      5561            0.0000000000
     16796      5572  TIP3      H1              2.9753932509      -19.8924904904        3.5487015019  SOLV      5561            0.0000000000
     16797      5572  TIP3      H2              2.4238180161      -19.7731109458        4.9558142399  SOLV      5561            0.0000000000
     16798      5573  TIP3      OH2             9.3258456574      -18.9112432485        6.5968957731  SOLV      5562            0.0000000000
     16799      5573  TIP3      H1              9.8065662059      -18.3691708653        5.9484048312  SOLV      5562            0.0000000000
     16800      5573  TIP3      H2              9.5435018266      -18.4678277840        7.4276549479  SOLV      5562            0.0000000000
     16801      5574  TIP3      OH2            14.5689192065      -17.3655777397        6.4704151647  SOLV      5563            0.0000000000
     16802      5574  TIP3      H1             14.1138363927      -17.6539135428        5.6744248670  SOLV      5563            0.0000000000
     16803      5574  TIP3      H2             14.4909827550      -18.1554497012        7.0576200622  SOLV      5563            0.0000000000
     16804      5575  TIP3      OH2            -0.1406999111       -4.7611797674        2.2993074390  SOLV      5564            0.0000000000
     16805      5575  TIP3      H1             -0.8212355125       -5.0155935893        1.6509981237  SOLV      5564            0.0000000000
     16806      5575  TIP3      H2             -0.4421763039       -3.8888300101        2.5792809336  SOLV      5564            0.0000000000
     16807      5576  TIP3      OH2             3.8359227657      -18.9321025539        1.9196817170  SOLV      5565            0.0000000000
     16808      5576  TIP3      H1              4.3019359120      -19.5404419992        1.3123274011  SOLV      5565            0.0000000000
     16809      5576  TIP3      H2              4.5727154081      -18.3837856690        2.2535255454  SOLV      5565            0.0000000000
     16810      5577  TIP3      OH2             8.8952934888      -17.0992565564        2.8897731691  SOLV      5566            0.0000000000
     16811      5577  TIP3      H1              9.4902675232      -17.5912344941        3.4748938577  SOLV      5566            0.0000000000
     16812      5577  TIP3      H2              9.1489971363      -16.1779899541        3.1255198561  SOLV      5566            0.0000000000
     16813      5578  TIP3      OH2            14.6466335041       -1.5894283812       -1.2855000589  SOLV      5567            0.0000000000
     16814      5578  TIP3      H1             14.7261703211       -2.5758343408       -1.3184500328  SOLV      5567            0.0000000000
     16815      5578  TIP3      H2             13.8396104178       -1.4657123227       -1.8071519170  SOLV      5567            0.0000000000
     16816      5579  TIP3      OH2             6.9028219293      -16.3526077867       16.6965689158  SOLV      5568            0.0000000000
     16817      5579  TIP3      H1              6.4702761495      -17.0314652890       17.2437593594  SOLV      5568            0.0000000000
     16818      5579  TIP3      H2              7.8198663361      -16.3903711507       17.0458399215  SOLV      5568            0.0000000000
     16819      5580  TIP3      OH2             9.3882541755      -16.4245673676       17.9293622092  SOLV      5569            0.0000000000
     16820      5580  TIP3      H1             10.2148935260      -16.7801313498       17.5674374554  SOLV      5569            0.0000000000
     16821      5580  TIP3      H2              9.1788432769      -17.0921601637       18.6185874954  SOLV      5569            0.0000000000
     16822      5581  TIP3      OH2             0.8355717779       -4.7700475637       -1.2588060743  SOLV      5570            0.0000000000
     16823      5581  TIP3      H1              1.1215508233       -4.0745847401       -0.6621575690  SOLV      5570            0.0000000000
     16824      5581  TIP3      H2              1.6634745695       -4.9656325335       -1.7476090122  SOLV      5570            0.0000000000
     16825      5582  TIP3      OH2            17.7878466396      -15.7656488308       15.8708749122  SOLV      5571            0.0000000000
     16826      5582  TIP3      H1             18.3031441345      -15.8929327554       16.6770577777  SOLV      5571            0.0000000000
     16827      5582  TIP3      H2             18.5244380272      -15.7311076134       15.2143196617  SOLV      5571            0.0000000000
     16828      5583  TIP3      OH2            16.9408969898       -0.2589457111       10.6845577781  SOLV      5572            0.0000000000
     16829      5583  TIP3      H1             16.1656251064       -0.5492936095       10.1618665174  SOLV      5572            0.0000000000
     16830      5583  TIP3      H2             16.7598485202        0.7013933869       10.7492283408  SOLV      5572            0.0000000000
     16831      5584  TIP3      OH2            29.6443526914       -6.4647748155       -1.7069918102  SOLV      5573            0.0000000000
     16832      5584  TIP3      H1             29.2787699370       -5.5882149808       -1.9570195275  SOLV      5573            0.0000000000
     16833      5584  TIP3      H2             28.9247895141       -7.0380277374       -2.0286296605  SOLV      5573            0.0000000000
     16834      5585  TIP3      OH2            29.6668644295       -6.4736852345        2.2267159257  SOLV      5574            0.0000000000
     16835      5585  TIP3      H1             30.0266596237       -6.7531975515        3.0907579129  SOLV      5574            0.0000000000
     16836      5585  TIP3      H2             29.2880553057       -7.3012619339        1.8923022268  SOLV      5574            0.0000000000
     16837      5586  TIP3      OH2            22.6047534570       -7.6035805449        5.8525879107  SOLV      5575            0.0000000000
     16838      5586  TIP3      H1             22.9096718157       -8.2927726338        6.4726963683  SOLV      5575            0.0000000000
     16839      5586  TIP3      H2             23.4090136665       -7.0747756734        5.7540246591  SOLV      5575            0.0000000000
     16840      5587  TIP3      OH2            32.3837042468       -3.5667689388       -0.9765072146  SOLV      5576            0.0000000000
     16841      5587  TIP3      H1             31.9017583221       -4.2006930632       -0.4286424358  SOLV      5576            0.0000000000
     16842      5587  TIP3      H2             32.3594887903       -2.7534832438       -0.4461792334  SOLV      5576            0.0000000000
     16843      5588  TIP3      OH2            22.3723552006       -3.4700717089        3.0173001667  SOLV      5577            0.0000000000
     16844      5588  TIP3      H1             22.2870034145       -4.4466583011        3.0327139744  SOLV      5577            0.0000000000
     16845      5588  TIP3      H2             23.3397563272       -3.3770511086        2.9400619583  SOLV      5577            0.0000000000
     16846      5589  TIP3      OH2            19.3999454391      -11.5390008461        0.8536360231  SOLV      5578            0.0000000000
     16847      5589  TIP3      H1             18.9872519713      -10.6862434648        1.0807763899  SOLV      5578            0.0000000000
     16848      5589  TIP3      H2             18.6726034742      -11.9474977851        0.3485035001  SOLV      5578            0.0000000000
     16849      5590  TIP3      OH2            19.9936006346       -8.5779477960        2.6817265063  SOLV      5579            0.0000000000
     16850      5590  TIP3      H1             20.5117083827       -9.3544718366        2.9903240698  SOLV      5579            0.0000000000
     16851      5590  TIP3      H2             20.6185388678       -8.1424099897        2.0849872782  SOLV      5579            0.0000000000
     16852      5591  TIP3      OH2            28.6213487474        1.1441396140       -0.8331827330  SOLV      5580            0.0000000000
     16853      5591  TIP3      H1             29.0256306171        0.4251621189       -1.3631830308  SOLV      5580            0.0000000000
     16854      5591  TIP3      H2             28.4680211737        0.7025975007        0.0101296740  SOLV      5580            0.0000000000
     16855      5592  TIP3      OH2            27.6109502000       -4.2388461345        2.6489086736  SOLV      5581            0.0000000000
     16856      5592  TIP3      H1             28.0194632329       -5.0113514179        2.2222564713  SOLV      5581            0.0000000000
     16857      5592  TIP3      H2             28.4346687842       -3.7754712777        2.9152006104  SOLV      5581            0.0000000000
     16858      5593  TIP3      OH2            31.7238525405       -9.2471366137        2.9166289743  SOLV      5582            0.0000000000
     16859      5593  TIP3      H1             32.2099504272      -10.0637704027        3.1483281345  SOLV      5582            0.0000000000
     16860      5593  TIP3      H2             31.4214811419       -9.4673564511        2.0150924898  SOLV      5582            0.0000000000
     16861      5594  TIP3      OH2            25.1677252645      -12.6570653771        2.6027941875  SOLV      5583            0.0000000000
     16862      5594  TIP3      H1             24.9951696894      -11.9227839503        1.9759636392  SOLV      5583            0.0000000000
     16863      5594  TIP3      H2             24.6768859303      -13.3771389516        2.1528176204  SOLV      5583            0.0000000000
     16864      5595  TIP3      OH2            31.9167582793      -11.7618919978       -1.1701452402  SOLV      5584            0.0000000000
     16865      5595  TIP3      H1             32.6101514788      -11.8508060272       -0.4717997639  SOLV      5584            0.0000000000
     16866      5595  TIP3      H2             32.4599586355      -11.3766393497       -1.8848949486  SOLV      5584            0.0000000000
     16867      5596  TIP3      OH2            21.4645261614      -10.6554440394        3.6905975507  SOLV      5585            0.0000000000
     16868      5596  TIP3      H1             22.3021244592      -10.8053818831        4.1697354807  SOLV      5585            0.0000000000
     16869      5596  TIP3      H2             21.6376178545      -11.1901433914        2.8846519299  SOLV      5585            0.0000000000
     16870      5597  TIP3      OH2            25.8610470463       -8.6667425737        1.6811904050  SOLV      5586            0.0000000000
     16871      5597  TIP3      H1             26.8127807199       -8.8913946828        1.7774117532  SOLV      5586            0.0000000000
     16872      5597  TIP3      H2             25.4977753499       -9.5052822151        1.3248968748  SOLV      5586            0.0000000000
     16873      5598  TIP3      OH2            25.0966434453      -12.8238561883        6.9526962495  SOLV      5587            0.0000000000
     16874      5598  TIP3      H1             24.5128470447      -12.4377475291        6.2724366617  SOLV      5587            0.0000000000
     16875      5598  TIP3      H2             24.5730758665      -12.6393824062        7.7604332413  SOLV      5587            0.0000000000
     16876      5599  TIP3      OH2            28.4693470416       -4.3122402346       -2.9439512050  SOLV      5588            0.0000000000
     16877      5599  TIP3      H1             28.1584259714       -4.4051756879       -3.8577961795  SOLV      5588            0.0000000000
     16878      5599  TIP3      H2             28.0276055891       -3.4789446279       -2.6773023202  SOLV      5588            0.0000000000
     16879      5600  TIP3      OH2            26.1645840457       -5.0520964351        4.8492887400  SOLV      5589            0.0000000000
     16880      5600  TIP3      H1             25.5829058299       -4.3519539270        5.2194358441  SOLV      5589            0.0000000000
     16881      5600  TIP3      H2             26.5941681780       -4.5826000866        4.1029557226  SOLV      5589            0.0000000000
     16882      5601  TIP3      OH2            33.9746942736      -11.6662450788        0.5099490347  SOLV      5590            0.0000000000
     16883      5601  TIP3      H1             34.2769831050      -12.5025231161        0.9227752495  SOLV      5590            0.0000000000
     16884      5601  TIP3      H2             34.8330348080      -11.1975226361        0.4710035178  SOLV      5590            0.0000000000
     16885      5602  TIP3      OH2            23.8133643189      -11.6764166735        4.7877870534  SOLV      5591            0.0000000000
     16886      5602  TIP3      H1             24.4261920367      -10.9466643266        5.0375084121  SOLV      5591            0.0000000000
     16887      5602  TIP3      H2             24.3175239263      -12.0660461343        4.0363634935  SOLV      5591            0.0000000000
     16888      5603  TIP3      OH2            24.4736605120       -3.0720596956        5.8781172179  SOLV      5592            0.0000000000
     16889      5603  TIP3      H1             24.2194438072       -2.1967778756        5.5208831932  SOLV      5592            0.0000000000
     16890      5603  TIP3      H2             23.6760114243       -3.2577688563        6.4194533917  SOLV      5592            0.0000000000
     16891      5604  TIP3      OH2            18.3336264376       -6.2121275219       -1.7742462915  SOLV      5593            0.0000000000
     16892      5604  TIP3      H1             17.9497414393       -5.9448224809       -2.6320551499  SOLV      5593            0.0000000000
     16893      5604  TIP3      H2             18.6803780950       -5.3631596742       -1.4353080358  SOLV      5593            0.0000000000
     16894      5605  TIP3      OH2            32.8352252218       -1.0563748197        0.5702711580  SOLV      5594            0.0000000000
     16895      5605  TIP3      H1             31.9603768683       -1.1313414358        1.0223723532  SOLV      5594            0.0000000000
     16896      5605  TIP3      H2             32.7330294373       -0.1844619238        0.1342168167  SOLV      5594            0.0000000000
     16897      5606  TIP3      OH2            35.2422806614      -12.0738304918        4.2073619416  SOLV      5595            0.0000000000
     16898      5606  TIP3      H1             34.3239425910      -11.8940235897        3.9104539828  SOLV      5595            0.0000000000
     16899      5606  TIP3      H2             35.7123239099      -12.1000257051        3.3668757386  SOLV      5595            0.0000000000
     16900      5607  TIP3      OH2            28.5723385473      -15.6724122296        4.0830545380  SOLV      5596            0.0000000000
     16901      5607  TIP3      H1             28.4449781121      -16.6152032918        4.3017893725  SOLV      5596            0.0000000000
     16902      5607  TIP3      H2             27.8197653349      -15.2718216394        4.5719635747  SOLV      5596            0.0000000000
     16903      5608  TIP3      OH2            29.7817512445       -0.6291071553       -2.6194346672  SOLV      5597            0.0000000000
     16904      5608  TIP3      H1             30.2663674964       -1.4681360527       -2.8091512779  SOLV      5597            0.0000000000
     16905      5608  TIP3      H2             30.4252343146        0.0151912034       -2.9977715496  SOLV      5597            0.0000000000
     16906      5609  TIP3      OH2            31.2270310531       -2.8038734417       -3.4318122282  SOLV      5598            0.0000000000
     16907      5609  TIP3      H1             31.0189207094       -3.5549447027       -4.0094793022  SOLV      5598            0.0000000000
     16908      5609  TIP3      H2             31.6824768951       -3.2393332972       -2.6839097511  SOLV      5598            0.0000000000
     16909      5610  TIP3      OH2            34.9322585064       -1.9814776904        4.0361560602  SOLV      5599            0.0000000000
     16910      5610  TIP3      H1             34.8297163733       -2.7037918462        3.3843899972  SOLV      5599            0.0000000000
     16911      5610  TIP3      H2             34.7551481419       -1.1871216629        3.4893403783  SOLV      5599            0.0000000000
     16912      5611  TIP3      OH2            27.9579610570       -7.9808645593       -3.2921160222  SOLV      5600            0.0000000000
     16913      5611  TIP3      H1             27.1774380306       -7.4340247623       -3.5178473473  SOLV      5600            0.0000000000
     16914      5611  TIP3      H2             28.4108963915       -8.0470165586       -4.1549375658  SOLV      5600            0.0000000000
     16915      5612  TIP3      OH2            27.5538878285      -10.1605047976       -6.2230249153  SOLV      5601            0.0000000000
     16916      5612  TIP3      H1             28.1971522434       -9.5933546507       -5.7596762947  SOLV      5601            0.0000000000
     16917      5612  TIP3      H2             28.1687037648      -10.7611656314       -6.6970854788  SOLV      5601            0.0000000000
     16918      5613  TIP3      OH2            37.0401974413       -5.5283007254        2.6380327005  SOLV      5602            0.0000000000
     16919      5613  TIP3      H1             36.2283254943       -5.0046080307        2.5009985114  SOLV      5602            0.0000000000
     16920      5613  TIP3      H2             37.1119250278       -6.0103489499        1.8041407269  SOLV      5602            0.0000000000
     16921      5614  TIP3      OH2            31.4399564681       -7.1449294775       -3.6505830583  SOLV      5603            0.0000000000
     16922      5614  TIP3      H1             30.8791505117       -6.9092532391       -2.8748535027  SOLV      5603            0.0000000000
     16923      5614  TIP3      H2             32.2432940730       -7.4709529418       -3.1966669727  SOLV      5603            0.0000000000
     16924      5615  TIP3      OH2            33.7363950891       -6.8074874997        5.5977751955  SOLV      5604            0.0000000000
     16925      5615  TIP3      H1             33.7105920072       -6.0238491863        6.1826057270  SOLV      5604            0.0000000000
     16926      5615  TIP3      H2             32.8701884168       -6.7373884287        5.1507753717  SOLV      5604            0.0000000000
     16927      5616  TIP3      OH2            23.7457289142       -7.2148506840        0.5748485307  SOLV      5605            0.0000000000
     16928      5616  TIP3      H1             23.3380615421       -7.7922763706       -0.1060832965  SOLV      5605            0.0000000000
     16929      5616  TIP3      H2             24.5127706599       -7.7499166758        0.8685449608  SOLV      5605            0.0000000000
     16930      5617  TIP3      OH2            25.0370297732       -3.0903633708        2.0138039132  SOLV      5606            0.0000000000
     16931      5617  TIP3      H1             24.8455348604       -3.3790499954        1.1064187044  SOLV      5606            0.0000000000
     16932      5617  TIP3      H2             25.9224606301       -3.4783357529        2.1735321907  SOLV      5606            0.0000000000
     16933      5618  TIP3      OH2            25.0621343285       -7.4750778097        4.0914063111  SOLV      5607            0.0000000000
     16934      5618  TIP3      H1             25.4166360379       -7.7559927724        3.2202438394  SOLV      5607            0.0000000000
     16935      5618  TIP3      H2             25.5331540567       -6.6293410095        4.2527433914  SOLV      5607            0.0000000000
     16936      5619  TIP3      OH2            30.5037547306       -1.1282036356        1.8833999786  SOLV      5608            0.0000000000
     16937      5619  TIP3      H1             30.2918449837       -0.3117848236        2.3712725417  SOLV      5608            0.0000000000
     16938      5619  TIP3      H2             30.2637496570       -1.8344092830        2.5166877434  SOLV      5608            0.0000000000
     16939      5620  TIP3      OH2            26.5162219805       -1.9142033983        7.3277032103  SOLV      5609            0.0000000000
     16940      5620  TIP3      H1             25.8921439827       -1.3142570718        7.7905187439  SOLV      5609            0.0000000000
     16941      5620  TIP3      H2             25.8823931703       -2.4525356628        6.8094898917  SOLV      5609            0.0000000000
     16942      5621  TIP3      OH2            29.7375614011       -8.5623410405       -5.3333193545  SOLV      5610            0.0000000000
     16943      5621  TIP3      H1             30.3765569969       -7.9662670541       -4.8859855149  SOLV      5610            0.0000000000
     16944      5621  TIP3      H2             29.9616670644       -8.3827136921       -6.2829698261  SOLV      5610            0.0000000000
     16945      5622  TIP3      OH2            24.0763263107       -6.3815131439        8.4055627306  SOLV      5611            0.0000000000
     16946      5622  TIP3      H1             24.1159740341       -5.4870743355        8.8003315736  SOLV      5611            0.0000000000
     16947      5622  TIP3      H2             23.1269253378       -6.5844699738        8.5278654603  SOLV      5611            0.0000000000
     16948      5623  TIP3      OH2            27.2807572237       -1.8181720511       -2.5722823248  SOLV      5612            0.0000000000
     16949      5623  TIP3      H1             28.1019591127       -1.2911215291       -2.5327183911  SOLV      5612            0.0000000000
     16950      5623  TIP3      H2             26.6948779146       -1.2605398062       -3.1009997835  SOLV      5612            0.0000000000
     16951      5624  TIP3      OH2            24.4358551188       -0.2763600214        8.2133028065  SOLV      5613            0.0000000000
     16952      5624  TIP3      H1             24.0852678331       -0.2232701911        7.3040173630  SOLV      5613            0.0000000000
     16953      5624  TIP3      H2             23.6290680412       -0.4935888223        8.7328818238  SOLV      5613            0.0000000000
     16954      5625  TIP3      OH2            22.4049563760       -8.7670411688       -1.3903589332  SOLV      5614            0.0000000000
     16955      5625  TIP3      H1             21.7402281296       -8.3040056609       -1.9434230003  SOLV      5614            0.0000000000
     16956      5625  TIP3      H2             22.0368156077       -9.6554287661       -1.3536533084  SOLV      5614            0.0000000000
     16957      5626  TIP3      OH2            33.0869787914       -2.4929983615       -9.4522635272  SOLV      5615            0.0000000000
     16958      5626  TIP3      H1             33.0213565451       -1.5122283306       -9.5170410271  SOLV      5615            0.0000000000
     16959      5626  TIP3      H2             33.8360389604       -2.6330220154      -10.0574679339  SOLV      5615            0.0000000000
     16960      5627  TIP3      OH2            20.2146117780       -4.9121571723        7.6775329860  SOLV      5616            0.0000000000
     16961      5627  TIP3      H1             19.5438646972       -5.1083450457        6.9904133694  SOLV      5616            0.0000000000
     16962      5627  TIP3      H2             20.6050048349       -5.7900810597        7.8631121863  SOLV      5616            0.0000000000
     16963      5628  TIP3      OH2            18.7690353777       -3.0107917882        4.0067498985  SOLV      5617            0.0000000000
     16964      5628  TIP3      H1             19.7331925034       -3.0085800813        3.9325495659  SOLV      5617            0.0000000000
     16965      5628  TIP3      H2             18.6139714678       -2.2030399905        4.5207161390  SOLV      5617            0.0000000000
     16966      5629  TIP3      OH2            37.2443414440        1.4471939022        4.5569984852  SOLV      5618            0.0000000000
     16967      5629  TIP3      H1             37.3434239898        0.5308307876        4.8848365671  SOLV      5618            0.0000000000
     16968      5629  TIP3      H2             36.4039240169        1.7018146827        5.0015599362  SOLV      5618            0.0000000000
     16969      5630  TIP3      OH2            28.4619979056       -0.6368177199        5.9070680989  SOLV      5619            0.0000000000
     16970      5630  TIP3      H1             28.4156749792        0.2864005537        6.2362626533  SOLV      5619            0.0000000000
     16971      5630  TIP3      H2             27.7444007161       -1.0555904602        6.4342923326  SOLV      5619            0.0000000000
     16972      5631  TIP3      OH2            26.1304191767        0.6168012901       -4.5644890534  SOLV      5620            0.0000000000
     16973      5631  TIP3      H1             25.6630363379        0.4354646057       -5.4008779346  SOLV      5620            0.0000000000
     16974      5631  TIP3      H2             25.7720038459        1.4861320878       -4.3052271972  SOLV      5620            0.0000000000
     16975      5632  TIP3      OH2            20.4665381766       -0.8895144733       -0.6966275926  SOLV      5621            0.0000000000
     16976      5632  TIP3      H1             20.9479868328       -0.9525304166        0.1590353823  SOLV      5621            0.0000000000
     16977      5632  TIP3      H2             20.0403314062       -1.7658012292       -0.7286159633  SOLV      5621            0.0000000000
     16978      5633  TIP3      OH2            28.0918936795       -0.3098039725       -8.2065685417  SOLV      5622            0.0000000000
     16979      5633  TIP3      H1             28.6673127100       -1.0171236993       -8.5763035753  SOLV      5622            0.0000000000
     16980      5633  TIP3      H2             28.4544358172       -0.2149600334       -7.3023657284  SOLV      5622            0.0000000000
     16981      5634  TIP3      OH2            28.6319535553        0.1702327927       -5.5043031046  SOLV      5623            0.0000000000
     16982      5634  TIP3      H1             27.7347943535        0.2668930421       -5.1126685826  SOLV      5623            0.0000000000
     16983      5634  TIP3      H2             29.1161055959       -0.2232262164       -4.7620917227  SOLV      5623            0.0000000000
     16984      5635  TIP3      OH2            36.3437319502       -7.2530024415        7.0915317798  SOLV      5624            0.0000000000
     16985      5635  TIP3      H1             35.4243689502       -7.2940477453        6.7933719397  SOLV      5624            0.0000000000
     16986      5635  TIP3      H2             36.6062084216       -8.1899912461        7.0604512799  SOLV      5624            0.0000000000
     16987      5636  TIP3      OH2            22.2663548320       -3.0958486310        7.5050778861  SOLV      5625            0.0000000000
     16988      5636  TIP3      H1             22.7544088013       -3.2594833683        8.3360917260  SOLV      5625            0.0000000000
     16989      5636  TIP3      H2             21.5159018181       -3.7210452203        7.5861323779  SOLV      5625            0.0000000000
     16990      5637  TIP3      OH2            26.2503905875      -14.8877046386        5.4389764108  SOLV      5626            0.0000000000
     16991      5637  TIP3      H1             25.3633272966      -15.1588233113        5.1274999394  SOLV      5626            0.0000000000
     16992      5637  TIP3      H2             26.0057136537      -14.0725215647        5.9220606891  SOLV      5626            0.0000000000
     16993      5638  TIP3      OH2            31.6069327761      -13.7491167104        7.3251211237  SOLV      5627            0.0000000000
     16994      5638  TIP3      H1             32.3088494856      -13.9481354477        7.9831248238  SOLV      5627            0.0000000000
     16995      5638  TIP3      H2             30.7891590200      -13.9067652997        7.8368201894  SOLV      5627            0.0000000000
     16996      5639  TIP3      OH2            34.0381839186       -9.4160845698        6.5734369580  SOLV      5628            0.0000000000
     16997      5639  TIP3      H1             33.4981232820       -9.4650768017        7.3940853090  SOLV      5628            0.0000000000
     16998      5639  TIP3      H2             33.7588181068       -8.5650764902        6.1886813731  SOLV      5628            0.0000000000
     16999      5640  TIP3      OH2            30.3860832637       -8.1425541826       -7.8787367775  SOLV      5629            0.0000000000
     17000      5640  TIP3      H1             30.0538910980       -8.4069129857       -8.7582503530  SOLV      5629            0.0000000000
     17001      5640  TIP3      H2             31.2892642391       -7.8473245480       -8.1190881700  SOLV      5629            0.0000000000
     17002      5641  TIP3      OH2            27.6718328578      -14.4153002678       -4.8701923806  SOLV      5630            0.0000000000
     17003      5641  TIP3      H1             27.3181025694      -14.4622874617       -3.9615469757  SOLV      5630            0.0000000000
     17004      5641  TIP3      H2             27.2782950900      -15.2255907079       -5.2471973341  SOLV      5630            0.0000000000
     17005      5642  TIP3      OH2            25.5595608962       -9.7006668930        5.5791942404  SOLV      5631            0.0000000000
     17006      5642  TIP3      H1             25.0950466258       -9.4690385616        6.4084308269  SOLV      5631            0.0000000000
     17007      5642  TIP3      H2             25.4109566331       -8.8852945881        5.0499428889  SOLV      5631            0.0000000000
     17008      5643  TIP3      OH2            24.4357781844      -10.8477353319        0.7275825954  SOLV      5632            0.0000000000
     17009      5643  TIP3      H1             23.5010124281      -11.0778378897        0.9060258748  SOLV      5632            0.0000000000
     17010      5643  TIP3      H2             24.5472984967      -11.2518261233       -0.1624497463  SOLV      5632            0.0000000000
     17011      5644  TIP3      OH2            29.3139830176      -10.0067334346       -1.9805670888  SOLV      5633            0.0000000000
     17012      5644  TIP3      H1             28.8238595068       -9.2901201526       -2.4390919826  SOLV      5633            0.0000000000
     17013      5644  TIP3      H2             29.8681736793      -10.3582601918       -2.7085806201  SOLV      5633            0.0000000000
     17014      5645  TIP3      OH2            31.0904984297       -7.2494111970        8.8283521205  SOLV      5634            0.0000000000
     17015      5645  TIP3      H1             30.8906416315       -7.9725669548        9.4633908092  SOLV      5634            0.0000000000
     17016      5645  TIP3      H2             32.0248435487       -7.0747804928        9.0457932741  SOLV      5634            0.0000000000
     17017      5646  TIP3      OH2            30.7752330375       -9.7645687203        0.3937098577  SOLV      5635            0.0000000000
     17018      5646  TIP3      H1             30.1696173583       -9.5209422196       -0.3375841756  SOLV      5635            0.0000000000
     17019      5646  TIP3      H2             31.1702766607      -10.5565734914       -0.0278559055  SOLV      5635            0.0000000000
     17020      5647  TIP3      OH2            23.7660580607       -9.4298791509        7.6859454119  SOLV      5636            0.0000000000
     17021      5647  TIP3      H1             24.1583532723       -8.7967055364        8.3073382305  SOLV      5636            0.0000000000
     17022      5647  TIP3      H2             23.7096823299      -10.2430334165        8.2228020119  SOLV      5636            0.0000000000
     17023      5648  TIP3      OH2            24.2652886075      -14.6605854249       -5.2233918838  SOLV      5637            0.0000000000
     17024      5648  TIP3      H1             24.1500017069      -14.6243809408       -4.2548813407  SOLV      5637            0.0000000000
     17025      5648  TIP3      H2             23.5173590878      -14.1026356003       -5.5178813817  SOLV      5637            0.0000000000
     17026      5649  TIP3      OH2            19.7073688652      -14.2832972982        3.4665984938  SOLV      5638            0.0000000000
     17027      5649  TIP3      H1             20.3584058018      -13.8891037214        4.0856678092  SOLV      5638            0.0000000000
     17028      5649  TIP3      H2             20.2408330635      -14.4227415747        2.6742240832  SOLV      5638            0.0000000000
     17029      5650  TIP3      OH2            19.3938418224      -14.3489302482       -1.3079379907  SOLV      5639            0.0000000000
     17030      5650  TIP3      H1             19.8009747211      -14.0035951961       -2.1347563715  SOLV      5639            0.0000000000
     17031      5650  TIP3      H2             18.7663840629      -13.6231626100       -1.1420517583  SOLV      5639            0.0000000000
     17032      5651  TIP3      OH2            30.9805990030       -7.2834926990        4.5924655959  SOLV      5640            0.0000000000
     17033      5651  TIP3      H1             31.3289648532       -7.9872161842        3.9948057988  SOLV      5640            0.0000000000
     17034      5651  TIP3      H2             30.6839489251       -7.8367762884        5.3470596457  SOLV      5640            0.0000000000
     17035      5652  TIP3      OH2            27.7555328516      -12.6716722359        1.3180053777  SOLV      5641            0.0000000000
     17036      5652  TIP3      H1             26.9670733095      -12.6450052841        1.8935032366  SOLV      5641            0.0000000000
     17037      5652  TIP3      H2             28.4814229569      -12.7226268537        1.9658899838  SOLV      5641            0.0000000000
     17038      5653  TIP3      OH2            22.0269083307      -12.0543255526        1.4026069277  SOLV      5642            0.0000000000
     17039      5653  TIP3      H1             21.0914796139      -11.9952725776        1.0948936461  SOLV      5642            0.0000000000
     17040      5653  TIP3      H2             22.2949876659      -12.9534962171        1.1363911111  SOLV      5642            0.0000000000
     17041      5654  TIP3      OH2            24.6662906153      -12.1332145508       -1.6799727341  SOLV      5643            0.0000000000
     17042      5654  TIP3      H1             25.6070403780      -11.9708971506       -1.8892912011  SOLV      5643            0.0000000000
     17043      5654  TIP3      H2             24.2085391630      -11.9098973481       -2.5243506031  SOLV      5643            0.0000000000
     17044      5655  TIP3      OH2            32.5800875301      -11.8091295894        3.4807327682  SOLV      5644            0.0000000000
     17045      5655  TIP3      H1             32.1959272945      -11.6915134185        4.3780512226  SOLV      5644            0.0000000000
     17046      5655  TIP3      H2             31.9363267080      -12.3979953619        3.0603963216  SOLV      5644            0.0000000000
     17047      5656  TIP3      OH2            23.2205332724      -11.7796414469       -3.9507313402  SOLV      5645            0.0000000000
     17048      5656  TIP3      H1             22.5426456617      -12.2307985668       -4.4867565529  SOLV      5645            0.0000000000
     17049      5656  TIP3      H2             23.7535497666      -11.3618345053       -4.6614809483  SOLV      5645            0.0000000000
     17050      5657  TIP3      OH2            34.3411298282        5.0408567105        5.5643551375  SOLV      5646            0.0000000000
     17051      5657  TIP3      H1             34.3104074413        5.2709990732        4.6167061966  SOLV      5646            0.0000000000
     17052      5657  TIP3      H2             35.1265961163        5.5419395048        5.8615158796  SOLV      5646            0.0000000000
     17053      5658  TIP3      OH2            23.9009461161       -3.8798941971        9.7502904399  SOLV      5647            0.0000000000
     17054      5658  TIP3      H1             24.7036967684       -3.5974670573       10.2324284513  SOLV      5647            0.0000000000
     17055      5658  TIP3      H2             23.2534658399       -3.8894373461       10.4822310869  SOLV      5647            0.0000000000
     17056      5659  TIP3      OH2            28.4934501141       -9.3407283469        2.3021995733  SOLV      5648            0.0000000000
     17057      5659  TIP3      H1             29.2634042911       -9.6726659623        1.8116164579  SOLV      5648            0.0000000000
     17058      5659  TIP3      H2             28.5812968522       -9.7909887414        3.1617711798  SOLV      5648            0.0000000000
     17059      5660  TIP3      OH2            23.6747349437      -14.4513538291        1.1184491167  SOLV      5649            0.0000000000
     17060      5660  TIP3      H1             23.3745257790      -15.2459000125        1.6068772548  SOLV      5649            0.0000000000
     17061      5660  TIP3      H2             24.1428479510      -14.8392267277        0.3662431695  SOLV      5649            0.0000000000
     17062      5661  TIP3      OH2            28.2783603196      -10.3383313589        5.2099084271  SOLV      5650            0.0000000000
     17063      5661  TIP3      H1             27.3873204806       -9.9619949338        5.3473559993  SOLV      5650            0.0000000000
     17064      5661  TIP3      H2             28.8606154102       -9.7211896654        5.6966771040  SOLV      5650            0.0000000000
     17065      5662  TIP3      OH2            25.6336762435       -6.4799405966       -3.8408277226  SOLV      5651            0.0000000000
     17066      5662  TIP3      H1             24.9124955315       -7.1323484116       -3.9700313665  SOLV      5651            0.0000000000
     17067      5662  TIP3      H2             25.4222053272       -6.1430508611       -2.9354274154  SOLV      5651            0.0000000000
     17068      5663  TIP3      OH2            34.6175403882       -4.0305633906        2.1367551781  SOLV      5652            0.0000000000
     17069      5663  TIP3      H1             34.0582263823       -3.6585589229        1.4345842027  SOLV      5652            0.0000000000
     17070      5663  TIP3      H2             34.0049192588       -4.7385002080        2.4234897111  SOLV      5652            0.0000000000
     17071      5664  TIP3      OH2            30.2267012359      -13.4567243785       -5.0675203226  SOLV      5653            0.0000000000
     17072      5664  TIP3      H1             29.2545182282      -13.6156649721       -5.0802682511  SOLV      5653            0.0000000000
     17073      5664  TIP3      H2             30.2925127582      -12.4867340929       -4.9645975136  SOLV      5653            0.0000000000
     17074      5665  TIP3      OH2            29.6212647049       -3.2780997009        6.1357780259  SOLV      5654            0.0000000000
     17075      5665  TIP3      H1             30.0005569530       -3.4615809837        7.0053150474  SOLV      5654            0.0000000000
     17076      5665  TIP3      H2             29.2502531447       -2.3857367696        6.2399101600  SOLV      5654            0.0000000000
     17077      5666  TIP3      OH2            30.8381135324      -10.8501532481       -4.1705814370  SOLV      5655            0.0000000000
     17078      5666  TIP3      H1             31.8034117577      -10.7831024925       -4.0860556214  SOLV      5655            0.0000000000
     17079      5666  TIP3      H2             30.6271410251      -10.0877120210       -4.7466726356  SOLV      5655            0.0000000000
     17080      5667  TIP3      OH2            22.5685499601       -6.2636825268        2.8895763310  SOLV      5656            0.0000000000
     17081      5667  TIP3      H1             22.9490680270       -6.5304256790        2.0266735356  SOLV      5656            0.0000000000
     17082      5667  TIP3      H2             23.0952023162       -6.7982578655        3.5041333117  SOLV      5656            0.0000000000
     17083      5668  TIP3      OH2            27.1269547814       -4.9734142353       -5.5586127485  SOLV      5657            0.0000000000
     17084      5668  TIP3      H1             26.6293248430       -4.1222841867       -5.5518453925  SOLV      5657            0.0000000000
     17085      5668  TIP3      H2             26.5736601364       -5.5188940853       -4.9584576069  SOLV      5657            0.0000000000
     17086      5669  TIP3      OH2            21.4262281178       -7.0370234046        9.0549245431  SOLV      5658            0.0000000000
     17087      5669  TIP3      H1             21.6375693184       -7.1567311001       10.0018749932  SOLV      5658            0.0000000000
     17088      5669  TIP3      H2             20.7400346213       -7.7102010483        8.9204164274  SOLV      5658            0.0000000000
     17089      5670  TIP3      OH2            28.7099639026       -5.8568048155        9.2117411470  SOLV      5659            0.0000000000
     17090      5670  TIP3      H1             28.1099786152       -6.4734564767        8.7674768284  SOLV      5659            0.0000000000
     17091      5670  TIP3      H2             29.5819481513       -6.2281037922        8.9537370965  SOLV      5659            0.0000000000
     17092      5671  TIP3      OH2            31.2237210719       -0.6728720091        5.1086333620  SOLV      5660            0.0000000000
     17093      5671  TIP3      H1             30.2600250613       -0.6959525044        5.2473635227  SOLV      5660            0.0000000000
     17094      5671  TIP3      H2             31.5070295099       -0.1578958327        5.8935379028  SOLV      5660            0.0000000000
     17095      5672  TIP3      OH2            37.4076014264       -1.4053610120        5.0927027094  SOLV      5661            0.0000000000
     17096      5672  TIP3      H1             36.4292541304       -1.4349528850        5.0545281881  SOLV      5661            0.0000000000
     17097      5672  TIP3      H2             37.6248426654       -1.7833368005        4.2101293396  SOLV      5661            0.0000000000
     17098      5673  TIP3      OH2            32.5699537555       -1.8774615778       -6.7028538892  SOLV      5662            0.0000000000
     17099      5673  TIP3      H1             31.9803157066       -2.5247412770       -6.2932480901  SOLV      5662            0.0000000000
     17100      5673  TIP3      H2             32.6819879161       -2.2265663337       -7.6062650318  SOLV      5662            0.0000000000
     17101      5674  TIP3      OH2            32.2639648852       -5.4875177000        1.6815397923  SOLV      5663            0.0000000000
     17102      5674  TIP3      H1             31.3233878511       -5.7170898921        1.8177362715  SOLV      5663            0.0000000000
     17103      5674  TIP3      H2             32.5382058362       -6.2384099409        1.1148126226  SOLV      5663            0.0000000000
     17104      5675  TIP3      OH2            23.6318907857       -3.1650717422       -0.7946626235  SOLV      5664            0.0000000000
     17105      5675  TIP3      H1             23.5894234514       -2.3779590117       -1.3723903835  SOLV      5664            0.0000000000
     17106      5675  TIP3      H2             22.7007176419       -3.4038996213       -0.7313104145  SOLV      5664            0.0000000000
     17107      5676  TIP3      OH2            19.2846588465      -10.1794920036       -3.7433373769  SOLV      5665            0.0000000000
     17108      5676  TIP3      H1             19.7036961447       -9.3136528960       -3.5519185910  SOLV      5665            0.0000000000
     17109      5676  TIP3      H2             18.4983598922      -10.1391167959       -3.1560304759  SOLV      5665            0.0000000000
     17110      5677  TIP3      OH2            24.8814975613       -5.5797198907       -1.4166261304  SOLV      5666            0.0000000000
     17111      5677  TIP3      H1             24.5851550671       -4.6714411067       -1.2132693299  SOLV      5666            0.0000000000
     17112      5677  TIP3      H2             24.5431667945       -6.0761471253       -0.6497563873  SOLV      5666            0.0000000000
     17113      5678  TIP3      OH2            26.3017093358        0.2265599544        3.8360841608  SOLV      5667            0.0000000000
     17114      5678  TIP3      H1             26.7264732641        0.9540147620        3.3350828265  SOLV      5667            0.0000000000
     17115      5678  TIP3      H2             27.0661590758       -0.1540993259        4.2977901060  SOLV      5667            0.0000000000
     17116      5679  TIP3      OH2            22.7726008613       -0.8038112791       -2.3184832458  SOLV      5668            0.0000000000
     17117      5679  TIP3      H1             21.9255391583       -0.6993779328       -1.8448733048  SOLV      5668            0.0000000000
     17118      5679  TIP3      H2             23.1144013269        0.1178446711       -2.2899267782  SOLV      5668            0.0000000000
     17119      5680  TIP3      OH2            30.1179623093       -3.4366604204        3.4702777134  SOLV      5669            0.0000000000
     17120      5680  TIP3      H1             29.9748509430       -3.4353442515        4.4447981309  SOLV      5669            0.0000000000
     17121      5680  TIP3      H2             30.8912172547       -4.0129696348        3.3992696555  SOLV      5669            0.0000000000
     17122      5681  TIP3      OH2            29.9229545596       -4.4191396154       -7.7045659176  SOLV      5670            0.0000000000
     17123      5681  TIP3      H1             30.3836516045       -4.6852225688       -6.8777291425  SOLV      5670            0.0000000000
     17124      5681  TIP3      H2             29.0381036990       -4.7823245191       -7.5408089864  SOLV      5670            0.0000000000
     17125      5682  TIP3      OH2            32.6390762260        1.8675805166        3.9041427353  SOLV      5671            0.0000000000
     17126      5682  TIP3      H1             31.8376449013        1.3091036724        3.8620733273  SOLV      5671            0.0000000000
     17127      5682  TIP3      H2             32.4633132122        2.5046425409        3.1762112477  SOLV      5671            0.0000000000
     17128      5683  TIP3      OH2            33.1829590280        0.2114644367       -9.5219941365  SOLV      5672            0.0000000000
     17129      5683  TIP3      H1             33.6825426911        0.8361647578      -10.0713909323  SOLV      5672            0.0000000000
     17130      5683  TIP3      H2             32.4157308005        0.7723447375       -9.2789678138  SOLV      5672            0.0000000000
     17131      5684  TIP3      OH2            23.5040402880      -12.0169180321        9.1058188628  SOLV      5673            0.0000000000
     17132      5684  TIP3      H1             22.5453983499      -12.0255273279        9.2692013092  SOLV      5673            0.0000000000
     17133      5684  TIP3      H2             23.8400617611      -12.5175533049        9.8681174344  SOLV      5673            0.0000000000
     17134      5685  TIP3      OH2            31.4093333219       -5.0386470027       -5.4609946116  SOLV      5674            0.0000000000
     17135      5685  TIP3      H1             31.3613736420       -5.7702550883       -4.8112690032  SOLV      5674            0.0000000000
     17136      5685  TIP3      H2             32.3304428925       -5.1520416763       -5.7797308204  SOLV      5674            0.0000000000
     17137      5686  TIP3      OH2            20.6811859873       -1.1663117118        5.3990047550  SOLV      5675            0.0000000000
     17138      5686  TIP3      H1             21.2325434347       -1.8600641489        5.7981177215  SOLV      5675            0.0000000000
     17139      5686  TIP3      H2             20.9216278264       -0.3993780105        5.9350830080  SOLV      5675            0.0000000000
     17140      5687  TIP3      OH2            23.5687468010       -4.6910040953       -7.7061911150  SOLV      5676            0.0000000000
     17141      5687  TIP3      H1             23.6663477577       -5.6166746526       -7.9950944063  SOLV      5676            0.0000000000
     17142      5687  TIP3      H2             23.3222533807       -4.8055579955       -6.7684467977  SOLV      5676            0.0000000000
     17143      5688  TIP3      OH2            22.9798164644       -4.6425891544       -4.9728009493  SOLV      5677            0.0000000000
     17144      5688  TIP3      H1             23.7856691629       -4.8872514123       -4.4963609170  SOLV      5677            0.0000000000
     17145      5688  TIP3      H2             23.0109015944       -3.6603529925       -4.9226272912  SOLV      5677            0.0000000000
     17146      5689  TIP3      OH2            20.3387081936       -7.7253170239       -2.9529981759  SOLV      5678            0.0000000000
     17147      5689  TIP3      H1             19.6610721610       -7.2676123677       -2.4124700992  SOLV      5678            0.0000000000
     17148      5689  TIP3      H2             20.4716288991       -7.0589039475       -3.6571334524  SOLV      5678            0.0000000000
     17149      5690  TIP3      OH2            31.8519436264      -11.3059682757        6.0587689568  SOLV      5679            0.0000000000
     17150      5690  TIP3      H1             32.7080620194      -10.9682363154        6.3723068409  SOLV      5679            0.0000000000
     17151      5690  TIP3      H2             31.7653083952      -12.1470469830        6.5565929532  SOLV      5679            0.0000000000
     17152      5691  TIP3      OH2            30.6176885894      -13.9265567478       -2.3380609761  SOLV      5680            0.0000000000
     17153      5691  TIP3      H1             30.4998505228      -13.7136855886       -3.2880897845  SOLV      5680            0.0000000000
     17154      5691  TIP3      H2             31.0025231200      -13.0885824182       -1.9951936557  SOLV      5680            0.0000000000
     17155      5692  TIP3      OH2            25.6947057918       -2.6897558201       -5.4965122543  SOLV      5681            0.0000000000
     17156      5692  TIP3      H1             24.8146998854       -2.4349307110       -5.1561174968  SOLV      5681            0.0000000000
     17157      5692  TIP3      H2             25.8181124761       -2.0116839702       -6.1778125898  SOLV      5681            0.0000000000
     17158      5693  TIP3      OH2            27.5021497712      -12.0106819837       -1.3638595195  SOLV      5682            0.0000000000
     17159      5693  TIP3      H1             28.1477983008      -11.2942150764       -1.5507415755  SOLV      5682            0.0000000000
     17160      5693  TIP3      H2             27.6014196839      -12.1058509483       -0.3921592414  SOLV      5682            0.0000000000
     17161      5694  TIP3      OH2            30.2648859009       -8.8885080927        6.6733793210  SOLV      5683            0.0000000000
     17162      5694  TIP3      H1             30.5407959656       -8.3781569446        7.4631158916  SOLV      5683            0.0000000000
     17163      5694  TIP3      H2             30.7977566857       -9.7022405957        6.7589701684  SOLV      5683            0.0000000000
     17164      5695  TIP3      OH2            28.9464512698      -14.8631308650       -0.3734385868  SOLV      5684            0.0000000000
     17165      5695  TIP3      H1             28.8817223645      -14.0772533642        0.2014539109  SOLV      5684            0.0000000000
     17166      5695  TIP3      H2             29.5577714303      -14.5201544137       -1.0699004236  SOLV      5684            0.0000000000
     17167      5696  TIP3      OH2            23.1530852074       -1.9241741398       -4.8222792361  SOLV      5685            0.0000000000
     17168      5696  TIP3      H1             22.8581752882       -1.2264310532       -5.4511262917  SOLV      5685            0.0000000000
     17169      5696  TIP3      H2             22.9868366687       -1.4879004106       -3.9588012326  SOLV      5685            0.0000000000
     17170      5697  TIP3      OH2            24.0975679322      -14.7650943508       -2.4461665096  SOLV      5686            0.0000000000
     17171      5697  TIP3      H1             24.0869971307      -13.8508674455       -2.0968063824  SOLV      5686            0.0000000000
     17172      5697  TIP3      H2             25.0620037485      -14.9386699891       -2.3931561752  SOLV      5686            0.0000000000
     17173      5698  TIP3      OH2            36.6979474237      -10.0623882256        6.2888228189  SOLV      5687            0.0000000000
     17174      5698  TIP3      H1             35.7442465626      -10.0319576612        6.5051159701  SOLV      5687            0.0000000000
     17175      5698  TIP3      H2             36.6519201664      -10.0347359071        5.3259315649  SOLV      5687            0.0000000000
     17176      5699  TIP3      OH2            32.9334933860       -7.7730274014        0.2286525654  SOLV      5688            0.0000000000
     17177      5699  TIP3      H1             32.2793512157       -8.4537919236        0.4614657336  SOLV      5688            0.0000000000
     17178      5699  TIP3      H2             33.7106528618       -8.0221691076        0.7861101794  SOLV      5688            0.0000000000
     17179      5700  TIP3      OH2            20.3114034476       -5.6999249460       -4.9200715755  SOLV      5689            0.0000000000
     17180      5700  TIP3      H1             21.0356703257       -5.0485878857       -4.8459535183  SOLV      5689            0.0000000000
     17181      5700  TIP3      H2             20.7138990251       -6.2872373234       -5.5986498058  SOLV      5689            0.0000000000
     17182      5701  TIP3      OH2            19.6460183513      -12.8901476348       -3.5663218784  SOLV      5690            0.0000000000
     17183      5701  TIP3      H1             19.7321461261      -11.9150897566       -3.5653765577  SOLV      5690            0.0000000000
     17184      5701  TIP3      H2             18.9617414765      -13.0132361158       -4.2344982928  SOLV      5690            0.0000000000
     17185      5702  TIP3      OH2            32.9110998462        1.6282011224       -0.1689061841  SOLV      5691            0.0000000000
     17186      5702  TIP3      H1             32.4421593491        2.1164052281       -0.8852304716  SOLV      5691            0.0000000000
     17187      5702  TIP3      H2             33.8400541531        1.8576685283       -0.3945694698  SOLV      5691            0.0000000000
     17188      5703  TIP3      OH2            23.5741836574      -15.6609910947        5.1355634388  SOLV      5692            0.0000000000
     17189      5703  TIP3      H1             23.3108876842      -16.0166102216        4.2614140986  SOLV      5692            0.0000000000
     17190      5703  TIP3      H2             23.4946316062      -16.4456053246        5.7133317944  SOLV      5692            0.0000000000
     17191      5704  TIP3      OH2            19.0124379851       -3.4896939961       -1.0789321629  SOLV      5693            0.0000000000
     17192      5704  TIP3      H1             18.3341519565       -3.2511851474       -0.4331246265  SOLV      5693            0.0000000000
     17193      5704  TIP3      H2             18.6373900585       -3.1136647175       -1.9103834566  SOLV      5693            0.0000000000
     17194      5705  TIP3      OH2            20.6046972138        2.0125364213        9.6671714102  SOLV      5694            0.0000000000
     17195      5705  TIP3      H1             21.4717217574        2.0132046037       10.1310300457  SOLV      5694            0.0000000000
     17196      5705  TIP3      H2             20.4097029267        1.0609558704        9.6480866737  SOLV      5694            0.0000000000
     17197      5706  TIP3      OH2            25.3566295291        1.5277864146       10.1104876990  SOLV      5695            0.0000000000
     17198      5706  TIP3      H1             26.2985868544        1.3144478939       10.1667624638  SOLV      5695            0.0000000000
     17199      5706  TIP3      H2             25.0760101454        0.9126134053        9.4016050437  SOLV      5695            0.0000000000
     17200      5707  TIP3      OH2            25.2104328601       -2.6694549807       -8.6119391535  SOLV      5696            0.0000000000
     17201      5707  TIP3      H1             24.6717776320       -3.4186052367       -8.2644603700  SOLV      5696            0.0000000000
     17202      5707  TIP3      H2             25.9483073041       -3.1501978020       -9.0339552392  SOLV      5696            0.0000000000
     17203      5708  TIP3      OH2            31.7523973856        0.6517731356        7.4640272647  SOLV      5697            0.0000000000
     17204      5708  TIP3      H1             31.6837096898       -0.0545532887        8.1491188323  SOLV      5697            0.0000000000
     17205      5708  TIP3      H2             32.5322987364        1.1539928047        7.7669654136  SOLV      5697            0.0000000000
     17206      5709  TIP3      OH2            29.5253129020       -2.2831532212       -9.4687497882  SOLV      5698            0.0000000000
     17207      5709  TIP3      H1             29.9227315993       -2.9837278541       -8.9158594515  SOLV      5698            0.0000000000
     17208      5709  TIP3      H2             30.0397162914       -2.3381288353      -10.3016644095  SOLV      5698            0.0000000000
     17209      5710  TIP3      OH2            21.8695343080       -3.9791577889       11.6611215837  SOLV      5699            0.0000000000
     17210      5710  TIP3      H1             22.0119680754       -4.9358552066       11.7749825099  SOLV      5699            0.0000000000
     17211      5710  TIP3      H2             21.0042918483       -3.9595040858       11.1972666608  SOLV      5699            0.0000000000
     17212      5711  TIP3      OH2            21.6531207225       -7.5472356978       -6.3552917890  SOLV      5700            0.0000000000
     17213      5711  TIP3      H1             22.2607520883       -7.8036145638       -5.6381726193  SOLV      5700            0.0000000000
     17214      5711  TIP3      H2             22.2927307525       -7.4845171061       -7.1010255904  SOLV      5700            0.0000000000
     17215      5712  TIP3      OH2            27.9262426405       -3.1035719876        9.4172402611  SOLV      5701            0.0000000000
     17216      5712  TIP3      H1             27.5338939685       -2.9014199043        8.5443134293  SOLV      5701            0.0000000000
     17217      5712  TIP3      H2             28.2581031600       -4.0191196678        9.2983094116  SOLV      5701            0.0000000000
     17218      5713  TIP3      OH2            26.8870290538       -5.5028295084       -8.2644429825  SOLV      5702            0.0000000000
     17219      5713  TIP3      H1             26.8577300389       -5.4098285723       -7.2914955115  SOLV      5702            0.0000000000
     17220      5713  TIP3      H2             26.8611039858       -6.4813188381       -8.3552218303  SOLV      5702            0.0000000000
     17221      5714  TIP3      OH2            32.8052143297       -3.0313981858        5.4528444755  SOLV      5703            0.0000000000
     17222      5714  TIP3      H1             33.5842236228       -2.5923275123        5.0591899860  SOLV      5703            0.0000000000
     17223      5714  TIP3      H2             32.1192605390       -2.3528616292        5.3004488904  SOLV      5703            0.0000000000
     17224      5715  TIP3      OH2            23.0881493969       -6.6676624223       11.5000710688  SOLV      5704            0.0000000000
     17225      5715  TIP3      H1             23.9106861765       -7.0806290636       11.2079229245  SOLV      5704            0.0000000000
     17226      5715  TIP3      H2             23.3554405613       -6.3229714958       12.3804592572  SOLV      5704            0.0000000000
     17227      5716  TIP3      OH2            23.6958201546       -8.4365026401       -4.2123686105  SOLV      5705            0.0000000000
     17228      5716  TIP3      H1             23.4471138299       -8.8766456725       -3.3859649779  SOLV      5705            0.0000000000
     17229      5716  TIP3      H2             24.1092651955       -9.1659197196       -4.7214534190  SOLV      5705            0.0000000000
     17230      5717  TIP3      OH2            26.3716375915       -7.8673267956        8.0650260518  SOLV      5706            0.0000000000
     17231      5717  TIP3      H1             25.6305866313       -7.2239105722        8.0898942710  SOLV      5706            0.0000000000
     17232      5717  TIP3      H2             26.9306593434       -7.4920487714        7.3434588110  SOLV      5706            0.0000000000
     17233      5718  TIP3      OH2            24.7755422595      -10.4765992175       -5.7779176857  SOLV      5707            0.0000000000
     17234      5718  TIP3      H1             24.5274301580      -10.3822963197       -6.7234693580  SOLV      5707            0.0000000000
     17235      5718  TIP3      H2             25.7541819824      -10.4918841458       -5.8559208090  SOLV      5707            0.0000000000
     17236      5719  TIP3      OH2            31.5953761965       -3.7825156406        9.4239276787  SOLV      5708            0.0000000000
     17237      5719  TIP3      H1             32.4325045319       -4.0612316433        9.0296635145  SOLV      5708            0.0000000000
     17238      5719  TIP3      H2             31.5172010076       -4.4121696315       10.1658756123  SOLV      5708            0.0000000000
     17239      5720  TIP3      OH2            32.7072898682       -7.3065384473       -9.0308317393  SOLV      5709            0.0000000000
     17240      5720  TIP3      H1             32.5351238379       -7.7504495269       -9.8854026628  SOLV      5709            0.0000000000
     17241      5720  TIP3      H2             32.4564322844       -6.3847979276       -9.2739891540  SOLV      5709            0.0000000000
     17242      5721  TIP3      OH2            27.6352705702       -9.9109458870        9.3476335386  SOLV      5710            0.0000000000
     17243      5721  TIP3      H1             27.6787155464      -10.6875760351        8.7549393363  SOLV      5710            0.0000000000
     17244      5721  TIP3      H2             27.2028169676       -9.2399894955        8.7738910586  SOLV      5710            0.0000000000
     17245      5722  TIP3      OH2            27.6865705022      -12.0480666080        7.4453627206  SOLV      5711            0.0000000000
     17246      5722  TIP3      H1             27.9842894931      -11.6194622081        6.6187164627  SOLV      5711            0.0000000000
     17247      5722  TIP3      H2             26.7520934508      -12.2584056010        7.2378339209  SOLV      5711            0.0000000000
     17248      5723  TIP3      OH2            27.8844811869       -6.7269865229        6.1839206185  SOLV      5712            0.0000000000
     17249      5723  TIP3      H1             28.7643611386       -6.5736384731        5.8152079970  SOLV      5712            0.0000000000
     17250      5723  TIP3      H2             27.3379734633       -6.0720585918        5.6992269828  SOLV      5712            0.0000000000
     17251      5724  TIP3      OH2            33.8127205981       -7.0323353914        9.9578607962  SOLV      5713            0.0000000000
     17252      5724  TIP3      H1             34.2529628522       -7.8727682660       10.1538260412  SOLV      5713            0.0000000000
     17253      5724  TIP3      H2             34.5760390015       -6.4709498631        9.7435883469  SOLV      5713            0.0000000000
     17254      5725  TIP3      OH2            34.0718600784       -4.5297411798        7.3221265308  SOLV      5714            0.0000000000
     17255      5725  TIP3      H1             33.5127450224       -3.9775577806        6.7275738938  SOLV      5714            0.0000000000
     17256      5725  TIP3      H2             34.9585157587       -4.3655326007        6.9303047216  SOLV      5714            0.0000000000
     17257      5726  TIP3      OH2            26.4205716838       -8.8538691702       11.6926855689  SOLV      5715            0.0000000000
     17258      5726  TIP3      H1             25.7554256657       -9.5490139976       11.8672274314  SOLV      5715            0.0000000000
     17259      5726  TIP3      H2             26.7757427923       -9.1375774915       10.8261422334  SOLV      5715            0.0000000000
     17260      5727  TIP3      OH2            28.9881073985      -14.4397685827        8.1612668024  SOLV      5716            0.0000000000
     17261      5727  TIP3      H1             28.4925835752      -13.6269399873        7.9236892579  SOLV      5716            0.0000000000
     17262      5727  TIP3      H2             28.3061007297      -15.1309415773        8.0454819643  SOLV      5716            0.0000000000
     17263      5728  TIP3      OH2            30.2755252090       -9.4161049779       10.2844199140  SOLV      5717            0.0000000000
     17264      5728  TIP3      H1             30.1718221685       -9.5511876628       11.2447914927  SOLV      5717            0.0000000000
     17265      5728  TIP3      H2             29.3697835449       -9.6493271602        9.9924070382  SOLV      5717            0.0000000000
     17266      5729  TIP3      OH2            32.6197025067       -9.9160090817        8.8112252962  SOLV      5718            0.0000000000
     17267      5729  TIP3      H1             31.8945064467       -9.8882345433        9.4664206287  SOLV      5718            0.0000000000
     17268      5729  TIP3      H2             33.3878117208      -10.1789731479        9.3621715080  SOLV      5718            0.0000000000
     17269      5730  TIP3      OH2            34.9109493123      -10.4556168704       10.2672406712  SOLV      5719            0.0000000000
     17270      5730  TIP3      H1             35.1224824938      -11.3946041269       10.4435960893  SOLV      5719            0.0000000000
     17271      5730  TIP3      H2             34.9113834089      -10.0659027586       11.1684095672  SOLV      5719            0.0000000000
     17272      5731  TIP3      OH2            24.7942045273      -11.0592404653       12.2559630828  SOLV      5720            0.0000000000
     17273      5731  TIP3      H1             24.8908632617      -11.9813634495       11.9560245069  SOLV      5720            0.0000000000
     17274      5731  TIP3      H2             25.1869539303      -11.1202134682       13.1525480565  SOLV      5720            0.0000000000
     17275      5732  TIP3      OH2            29.8822726415      -14.3519422591       10.7568287205  SOLV      5721            0.0000000000
     17276      5732  TIP3      H1             30.5345279012      -15.0789131688       10.7057078556  SOLV      5721            0.0000000000
     17277      5732  TIP3      H2             29.5212461566      -14.3768809925        9.8471325399  SOLV      5721            0.0000000000
     17278      5733  TIP3      OH2            30.5883146573      -12.1942809967       12.3265510992  SOLV      5722            0.0000000000
     17279      5733  TIP3      H1             30.3788462140      -12.8985663542       11.6762065545  SOLV      5722            0.0000000000
     17280      5733  TIP3      H2             29.8116003767      -11.6003947273       12.2448735192  SOLV      5722            0.0000000000
     17281      5734  TIP3      OH2            22.8478973933        0.1081992766       -6.6772098409  SOLV      5723            0.0000000000
     17282      5734  TIP3      H1             23.7939469611        0.0140501525       -6.8971316345  SOLV      5723            0.0000000000
     17283      5734  TIP3      H2             22.5524718243        0.6173237841       -7.4570167145  SOLV      5723            0.0000000000
     17284      5735  TIP3      OH2            17.6188864711       -6.0800701223       -4.5429980827  SOLV      5724            0.0000000000
     17285      5735  TIP3      H1             18.5618109088       -5.8657477141       -4.7212331330  SOLV      5724            0.0000000000
     17286      5735  TIP3      H2             17.5391891021       -6.9598716422       -4.9702619742  SOLV      5724            0.0000000000
     17287      5736  TIP3      OH2            16.8037570111       -0.0063009159       -0.6305744104  SOLV      5725            0.0000000000
     17288      5736  TIP3      H1             16.0399552366       -0.5776677860       -0.8732053208  SOLV      5725            0.0000000000
     17289      5736  TIP3      H2             17.1913215362       -0.5262964899        0.1109616734  SOLV      5725            0.0000000000
     17290      5737  TIP3      OH2            18.0458245401       -1.3931644644        1.4267319872  SOLV      5726            0.0000000000
     17291      5737  TIP3      H1             17.8934784957       -2.1055667016        2.0680748032  SOLV      5726            0.0000000000
     17292      5737  TIP3      H2             18.6236172915       -0.8098867209        1.9538821532  SOLV      5726            0.0000000000
     17293      5738  TIP3      OH2            35.4151912121        2.6103698774       -0.6104216560  SOLV      5727            0.0000000000
     17294      5738  TIP3      H1             35.6924913972        2.8578450591        0.2896353147  SOLV      5727            0.0000000000
     17295      5738  TIP3      H2             35.5959073731        3.4204597269       -1.1089525015  SOLV      5727            0.0000000000
     17296      5739  TIP3      OH2            35.5955292734        2.7362544373        2.2632153362  SOLV      5728            0.0000000000
     17297      5739  TIP3      H1             35.1522507478        1.8637918806        2.2044993356  SOLV      5728            0.0000000000
     17298      5739  TIP3      H2             36.3723343649        2.4787221982        2.7799630784  SOLV      5728            0.0000000000
     17299      5740  TIP3      OH2            36.0417249363       -0.4349117036        7.9608343536  SOLV      5729            0.0000000000
     17300      5740  TIP3      H1             35.3692583436       -0.3638526142        8.6686084521  SOLV      5729            0.0000000000
     17301      5740  TIP3      H2             36.5048634567        0.4223540763        8.0414785712  SOLV      5729            0.0000000000
     17302      5741  TIP3      OH2            34.0853033162       -5.1763967749       -5.9879201429  SOLV      5730            0.0000000000
     17303      5741  TIP3      H1             34.4898675852       -4.2938050352       -6.0408795164  SOLV      5730            0.0000000000
     17304      5741  TIP3      H2             34.4055177410       -5.4595075961       -5.0984085496  SOLV      5730            0.0000000000
     17305      5742  TIP3      OH2            34.8981008815       -6.0406285865       -3.5573524205  SOLV      5731            0.0000000000
     17306      5742  TIP3      H1             34.3195022340       -6.7694199380       -3.2483828289  SOLV      5731            0.0000000000
     17307      5742  TIP3      H2             35.7170386680       -6.2538897295       -3.0845938142  SOLV      5731            0.0000000000
     17308      5743  TIP3      OH2            34.3883889402        0.2509886620        2.5048668949  SOLV      5732            0.0000000000
     17309      5743  TIP3      H1             33.7022794650        0.7122560785        3.0291781277  SOLV      5732            0.0000000000
     17310      5743  TIP3      H2             33.8663647413       -0.1371311985        1.7723268225  SOLV      5732            0.0000000000
     17311      5744  TIP3      OH2            34.7386746853       -7.6102329075       -7.1910764458  SOLV      5733            0.0000000000
     17312      5744  TIP3      H1             34.1129883239       -7.7907860455       -7.9241851444  SOLV      5733            0.0000000000
     17313      5744  TIP3      H2             34.2751936547       -6.8499649296       -6.7911364564  SOLV      5733            0.0000000000
     17314      5745  TIP3      OH2            32.9144651644      -10.7407031551       -7.3457173392  SOLV      5734            0.0000000000
     17315      5745  TIP3      H1             33.6342631296      -10.5147385899       -7.9494152595  SOLV      5734            0.0000000000
     17316      5745  TIP3      H2             32.9174944618      -11.7144748174       -7.4082214738  SOLV      5734            0.0000000000
     17317      5746  TIP3      OH2            33.6773557005       -8.1941675832       -2.3802779227  SOLV      5735            0.0000000000
     17318      5746  TIP3      H1             33.7026657602       -9.1668779117       -2.4410117544  SOLV      5735            0.0000000000
     17319      5746  TIP3      H2             33.5011002436       -8.0507751304       -1.4219927322  SOLV      5735            0.0000000000
     17320      5747  TIP3      OH2            19.9647821471       -7.4232921593        5.2098426296  SOLV      5736            0.0000000000
     17321      5747  TIP3      H1             19.9397801277       -7.7395415566        4.2826894835  SOLV      5736            0.0000000000
     17322      5747  TIP3      H2             20.9397644011       -7.3894979417        5.3604965234  SOLV      5736            0.0000000000
     17323      5748  TIP3      OH2            36.5341198876       -3.8961930598        6.2269409177  SOLV      5737            0.0000000000
     17324      5748  TIP3      H1             37.2882854263       -4.5245971458        6.2300750219  SOLV      5737            0.0000000000
     17325      5748  TIP3      H2             36.8919898933       -3.1447499334        5.7246253739  SOLV      5737            0.0000000000
     17326      5749  TIP3      OH2            38.5337267066       -5.6941315006        6.7998382080  SOLV      5738            0.0000000000
     17327      5749  TIP3      H1             37.7484461483       -6.2811872525        6.9217581421  SOLV      5738            0.0000000000
     17328      5749  TIP3      H2             39.0390416039       -5.9463357920        7.6098716045  SOLV      5738            0.0000000000
     17329      5750  TIP3      OH2            33.1109253230      -13.5543176660       -7.4322949948  SOLV      5739            0.0000000000
     17330      5750  TIP3      H1             33.8034056931      -14.1931177836       -7.6439115510  SOLV      5739            0.0000000000
     17331      5750  TIP3      H2             32.3218416359      -13.9799744712       -7.8065314207  SOLV      5739            0.0000000000
     17332      5751  TIP3      OH2            33.6314040066      -10.9497912556       -3.1738597279  SOLV      5740            0.0000000000
     17333      5751  TIP3      H1             34.0096513098      -11.8297747306       -2.9469936861  SOLV      5740            0.0000000000
     17334      5751  TIP3      H2             34.1145925794      -10.7438525101       -3.9852514370  SOLV      5740            0.0000000000
     17335      5752  TIP3      OH2            35.1849196381       -8.4070577813        1.5521241086  SOLV      5741            0.0000000000
     17336      5752  TIP3      H1             35.6177429866       -9.2383371730        1.2658104964  SOLV      5741            0.0000000000
     17337      5752  TIP3      H2             35.5197854491       -8.2983338142        2.4664401111  SOLV      5741            0.0000000000
     17338      5753  TIP3      OH2            36.0289883558       -7.7227848937        4.0645351381  SOLV      5742            0.0000000000
     17339      5753  TIP3      H1             35.2727093687       -7.4295549659        4.6045808897  SOLV      5742            0.0000000000
     17340      5753  TIP3      H2             36.4956578789       -6.8829478590        3.9037853369  SOLV      5742            0.0000000000
     17341      5754  TIP3      OH2            22.1379232252      -10.5752593928       11.7803529887  SOLV      5743            0.0000000000
     17342      5754  TIP3      H1             23.1130046483      -10.5668251936       11.9044535823  SOLV      5743            0.0000000000
     17343      5754  TIP3      H2             21.9231923431      -11.4219051227       12.2221743262  SOLV      5743            0.0000000000
     17344      5755  TIP3      OH2            34.5538040521      -13.5254781482       -2.6156609801  SOLV      5744            0.0000000000
     17345      5755  TIP3      H1             34.9434714497      -13.9463363173       -1.8308665489  SOLV      5744            0.0000000000
     17346      5755  TIP3      H2             33.8967006140      -14.2222160577       -2.8419081791  SOLV      5744            0.0000000000
     17347      5756  TIP3      OH2            21.7197192657      -13.5734824212        5.2585761275  SOLV      5745            0.0000000000
     17348      5756  TIP3      H1             22.3455609503      -14.3232252990        5.3222189719  SOLV      5745            0.0000000000
     17349      5756  TIP3      H2             22.3431008467      -12.8342146329        5.1375124113  SOLV      5745            0.0000000000
     17350      5757  TIP3      OH2            19.7438781606      -10.8759811183        5.9195762554  SOLV      5746            0.0000000000
     17351      5757  TIP3      H1             20.2703246751      -10.8645843306        5.0940259079  SOLV      5746            0.0000000000
     17352      5757  TIP3      H2             19.9853874069      -10.0268719843        6.3097470926  SOLV      5746            0.0000000000
     17353      5758  TIP3      OH2            19.8295362022      -15.8819205161        0.8371176957  SOLV      5747            0.0000000000
     17354      5758  TIP3      H1             18.8992072773      -15.8559443965        1.0818052438  SOLV      5747            0.0000000000
     17355      5758  TIP3      H2             19.8385451016      -15.2445417714        0.0860854879  SOLV      5747            0.0000000000
     17356      5759  TIP3      OH2            31.2535205525        1.2324811789       -3.9212341054  SOLV      5748            0.0000000000
     17357      5759  TIP3      H1             31.7029071946        1.1070077535       -4.7856336126  SOLV      5748            0.0000000000
     17358      5759  TIP3      H2             31.7527179309        1.9756318287       -3.5539755559  SOLV      5748            0.0000000000
     17359      5760  TIP3      OH2            21.8331845285      -15.0490971234        9.0896982352  SOLV      5749            0.0000000000
     17360      5760  TIP3      H1             21.3427985397      -15.0263070992        9.9255315910  SOLV      5749            0.0000000000
     17361      5760  TIP3      H2             21.1808733568      -14.6618103566        8.4748130716  SOLV      5749            0.0000000000
     17362      5761  TIP3      OH2            22.2275228965       -0.6997194453        9.8471810070  SOLV      5750            0.0000000000
     17363      5761  TIP3      H1             21.2936383490       -0.9448910281        9.7053123474  SOLV      5750            0.0000000000
     17364      5761  TIP3      H2             22.3510871043       -0.9169218198       10.7792282641  SOLV      5750            0.0000000000
     17365      5762  TIP3      OH2            24.0483138722       -0.3621277869        5.3430050488  SOLV      5751            0.0000000000
     17366      5762  TIP3      H1             23.5694761581        0.3968353675        4.9484496695  SOLV      5751            0.0000000000
     17367      5762  TIP3      H2             24.9067463507       -0.2308268947        4.8903699960  SOLV      5751            0.0000000000
     17368      5763  TIP3      OH2            28.4221889427        2.0258487846        6.7253151467  SOLV      5752            0.0000000000
     17369      5763  TIP3      H1             28.8506346586        2.0106389711        7.6079085951  SOLV      5752            0.0000000000
     17370      5763  TIP3      H2             29.0769017209        2.5479562374        6.2141817577  SOLV      5752            0.0000000000
     17371      5764  TIP3      OH2            30.2223172589        3.5816246219        5.3580768560  SOLV      5753            0.0000000000
     17372      5764  TIP3      H1             30.9174218732        3.0839544963        4.9052393742  SOLV      5753            0.0000000000
     17373      5764  TIP3      H2             30.7591628863        4.1454408720        5.9570288070  SOLV      5753            0.0000000000
     17374      5765  TIP3      OH2            20.7659410179        2.1498914102        5.6087089644  SOLV      5754            0.0000000000
     17375      5765  TIP3      H1             19.8568544757        2.4496410506        5.3807293076  SOLV      5754            0.0000000000
     17376      5765  TIP3      H2             20.9154060851        2.6625930708        6.4150974690  SOLV      5754            0.0000000000
     17377      5766  TIP3      OH2            23.1389697487        1.9599448241        4.1924704369  SOLV      5755            0.0000000000
     17378      5766  TIP3      H1             22.2568064451        2.0716052357        4.6119036432  SOLV      5755            0.0000000000
     17379      5766  TIP3      H2             22.9612194247        2.2709458400        3.2823548430  SOLV      5755            0.0000000000
     17380      5767  TIP3      OH2            27.3897951700        2.2023382977        2.1609432444  SOLV      5756            0.0000000000
     17381      5767  TIP3      H1             26.6930051436        2.3662183769        1.4984760358  SOLV      5756            0.0000000000
     17382      5767  TIP3      H2             27.4955676378        3.0916359000        2.5578908689  SOLV      5756            0.0000000000
     17383      5768  TIP3      OH2            30.0882374186        1.5716827937        2.6610619906  SOLV      5757            0.0000000000
     17384      5768  TIP3      H1             29.1506523144        1.7750284076        2.4714331847  SOLV      5757            0.0000000000
     17385      5768  TIP3      H2             30.5414766294        2.3051214401        2.2120781981  SOLV      5757            0.0000000000
     17386      5769  TIP3      OH2            32.0943308111        3.4845764691        1.7610663450  SOLV      5758            0.0000000000
     17387      5769  TIP3      H1             31.9754687598        4.3454354200        1.3048236271  SOLV      5758            0.0000000000
     17388      5769  TIP3      H2             32.3941470465        2.9123685394        1.0228298105  SOLV      5758            0.0000000000
     17389      5770  TIP3      OH2            19.8973763135        0.0868108964        2.9916855600  SOLV      5759            0.0000000000
     17390      5770  TIP3      H1             20.1382662165       -0.1986349355        3.8988392700  SOLV      5759            0.0000000000
     17391      5770  TIP3      H2             20.6260436428       -0.3516957535        2.4960175169  SOLV      5759            0.0000000000
     17392      5771  TIP3      OH2            21.8633505687       -1.1831278062        1.6263392511  SOLV      5760            0.0000000000
     17393      5771  TIP3      H1             22.0109157936       -2.0231453863        2.1236762555  SOLV      5760            0.0000000000
     17394      5771  TIP3      H2             22.7780725513       -0.8317262129        1.5841447444  SOLV      5760            0.0000000000
     17395      5772  TIP3      OH2            24.5259297176       -0.2714660474        1.6864602434  SOLV      5761            0.0000000000
     17396      5772  TIP3      H1             24.8228356846       -1.1940630166        1.5731993225  SOLV      5761            0.0000000000
     17397      5772  TIP3      H2             25.0149484070       -0.0431999257        2.5004143270  SOLV      5761            0.0000000000
     17398      5773  TIP3      OH2            30.2010162432      -13.6985485249        2.5056900258  SOLV      5762            0.0000000000
     17399      5773  TIP3      H1             29.7978657055      -14.4190364834        3.0192463870  SOLV      5762            0.0000000000
     17400      5773  TIP3      H2             30.9895740082      -14.1301243858        2.1191494122  SOLV      5762            0.0000000000
     17401      5774  TIP3      OH2            35.1210263970      -13.9460753409        1.4073059341  SOLV      5763            0.0000000000
     17402      5774  TIP3      H1             35.6850002372      -14.6555413338        1.0590384204  SOLV      5763            0.0000000000
     17403      5774  TIP3      H2             34.2705361308      -14.4040095787        1.5406947308  SOLV      5763            0.0000000000
     17404      5775  TIP3      OH2            22.7323933845      -16.6323330687        2.6532363181  SOLV      5764            0.0000000000
     17405      5775  TIP3      H1             21.7971899740      -16.8979436149        2.6060721353  SOLV      5764            0.0000000000
     17406      5775  TIP3      H2             23.1860948982      -17.5034087569        2.6269941546  SOLV      5764            0.0000000000
     17407      5776  TIP3      OH2            20.7063537616      -17.9317487657       -0.8620247008  SOLV      5765            0.0000000000
     17408      5776  TIP3      H1             21.0010126443      -17.3918922266       -1.6220899097  SOLV      5765            0.0000000000
     17409      5776  TIP3      H2             20.4328822440      -17.2335412092       -0.2298172747  SOLV      5765            0.0000000000
     17410      5777  TIP3      OH2            27.2215822874      -16.3027516744        1.5123105426  SOLV      5766            0.0000000000
     17411      5777  TIP3      H1             27.7215914567      -15.8174653976        0.8348666040  SOLV      5766            0.0000000000
     17412      5777  TIP3      H2             27.5630366433      -15.9039441119        2.3293049235  SOLV      5766            0.0000000000
     17413      5778  TIP3      OH2            32.4323252070      -14.9565580741        1.3120480241  SOLV      5767            0.0000000000
     17414      5778  TIP3      H1             32.2333315901      -15.2571987514        0.4176122401  SOLV      5767            0.0000000000
     17415      5778  TIP3      H2             32.3521482916      -15.7892557928        1.8332646833  SOLV      5767            0.0000000000
     17416      5779  TIP3      OH2            32.8648918525      -15.6711856319       -2.6975128940  SOLV      5768            0.0000000000
     17417      5779  TIP3      H1             31.9885838333      -15.2642751480       -2.8271592219  SOLV      5768            0.0000000000
     17418      5779  TIP3      H2             32.6281190333      -16.5981556670       -2.5045205110  SOLV      5768            0.0000000000
     17419      5780  TIP3      OH2            17.7322735803       -2.1966619584       -3.0740021870  SOLV      5769            0.0000000000
     17420      5780  TIP3      H1             16.9100671190       -2.3831405174       -3.5708757116  SOLV      5769            0.0000000000
     17421      5780  TIP3      H2             17.5623731551       -1.3106586503       -2.7390282911  SOLV      5769            0.0000000000
     17422      5781  TIP3      OH2            21.8187363973      -16.4126162112       -3.1579746029  SOLV      5770            0.0000000000
     17423      5781  TIP3      H1             22.2831173102      -16.9854344816       -3.8006991293  SOLV      5770            0.0000000000
     17424      5781  TIP3      H2             22.5463960308      -15.8281317065       -2.8612125037  SOLV      5770            0.0000000000
     17425      5782  TIP3      OH2            26.8639740618      -14.5258343326       -2.2203472692  SOLV      5771            0.0000000000
     17426      5782  TIP3      H1             27.4998885203      -14.9752262465       -1.6382185502  SOLV      5771            0.0000000000
     17427      5782  TIP3      H2             27.0820980059      -13.5922324605       -1.9994824579  SOLV      5771            0.0000000000
     17428      5783  TIP3      OH2            25.5107712393       -0.3406830487       -7.2272700297  SOLV      5772            0.0000000000
     17429      5783  TIP3      H1             26.3838249192       -0.1034131510       -7.6050320330  SOLV      5772            0.0000000000
     17430      5783  TIP3      H2             25.2804298928       -1.0761177606       -7.8407586707  SOLV      5772            0.0000000000
     17431      5784  TIP3      OH2            32.6081451748        0.8667454714       -6.2722674269  SOLV      5773            0.0000000000
     17432      5784  TIP3      H1             32.6441599752       -0.1107430317       -6.3852419335  SOLV      5773            0.0000000000
     17433      5784  TIP3      H2             32.1851652734        1.1420294682       -7.1114605819  SOLV      5773            0.0000000000
     17434      5785  TIP3      OH2            24.8054871451      -13.8458382058       11.5214484100  SOLV      5774            0.0000000000
     17435      5785  TIP3      H1             24.4421391539      -14.5272845176       12.1152001709  SOLV      5774            0.0000000000
     17436      5785  TIP3      H2             25.7431476625      -13.8385626477       11.8210603451  SOLV      5774            0.0000000000
     17437      5786  TIP3      OH2            27.2992352047      -13.8443596703       12.7143934694  SOLV      5775            0.0000000000
     17438      5786  TIP3      H1             28.1745668608      -14.0358625843       12.3352399676  SOLV      5775            0.0000000000
     17439      5786  TIP3      H2             27.2216172943      -14.5454844650       13.3915278844  SOLV      5775            0.0000000000
     17440      5787  TIP3      OH2            18.5882916389       -2.0264838303       -6.6866398440  SOLV      5776            0.0000000000
     17441      5787  TIP3      H1             18.7824534398       -1.8645632630       -5.7561281774  SOLV      5776            0.0000000000
     17442      5787  TIP3      H2             19.4192326103       -2.4751623069       -6.9774432869  SOLV      5776            0.0000000000
     17443      5788  TIP3      OH2            35.6852440784      -13.1878919776       10.6550574561  SOLV      5777            0.0000000000
     17444      5788  TIP3      H1             35.7475179864      -13.4774520796       11.5880776651  SOLV      5777            0.0000000000
     17445      5788  TIP3      H2             36.4996547678      -13.5811574586       10.2914701629  SOLV      5777            0.0000000000
     17446      5789  TIP3      OH2            34.8581952410        2.3306567339        5.5739069552  SOLV      5778            0.0000000000
     17447      5789  TIP3      H1             34.0849132618        2.0521418577        5.0402190282  SOLV      5778            0.0000000000
     17448      5789  TIP3      H2             34.6892940315        3.2919010173        5.6422098599  SOLV      5778            0.0000000000
     17449      5790  TIP3      OH2            36.1701157350       -3.2743582819       -6.2313594484  SOLV      5779            0.0000000000
     17450      5790  TIP3      H1             35.9710091758       -3.3715244383       -7.1927931301  SOLV      5779            0.0000000000
     17451      5790  TIP3      H2             35.8903279132       -2.3469173597       -6.0418127700  SOLV      5779            0.0000000000
     17452      5791  TIP3      OH2            38.1311655878       -2.4552582272        2.7321612560  SOLV      5780            0.0000000000
     17453      5791  TIP3      H1             37.3547360501       -2.8286366815        2.3029537253  SOLV      5780            0.0000000000
     17454      5791  TIP3      H2             38.8622137009       -2.9312019975        2.2805578072  SOLV      5780            0.0000000000
     17455      5792  TIP3      OH2           -32.3957106816       15.5665990675       14.4763622344  SOLV      5781            0.0000000000
     17456      5792  TIP3      H1            -31.5875180158       15.4072305054       14.9875812726  SOLV      5781            0.0000000000
     17457      5792  TIP3      H2            -32.6286385772       16.4713914054       14.7711205562  SOLV      5781            0.0000000000
     17458      5793  TIP3      OH2            36.7795139572       -0.7205748846       -5.7946143313  SOLV      5782            0.0000000000
     17459      5793  TIP3      H1             36.1892991105       -0.1790985541       -6.3690008145  SOLV      5782            0.0000000000
     17460      5793  TIP3      H2             37.6131022676       -0.2342076451       -5.9053402938  SOLV      5782            0.0000000000
     17461      5794  TIP3      OH2            38.4021012718        4.7723639664        4.6282795223  SOLV      5783            0.0000000000
     17462      5794  TIP3      H1             39.3508518972        4.5948871401        4.7264022070  SOLV      5783            0.0000000000
     17463      5794  TIP3      H2             38.0964959913        3.9067469998        4.3201844654  SOLV      5783            0.0000000000
     17464      5795  TIP3      OH2            34.6773387906        2.6908667018       -5.5977323566  SOLV      5784            0.0000000000
     17465      5795  TIP3      H1             34.0700010739        2.0299035577       -5.9920051524  SOLV      5784            0.0000000000
     17466      5795  TIP3      H2             35.1825363996        2.1209535316       -4.9721767914  SOLV      5784            0.0000000000
     17467      5796  TIP3      OH2            36.0506204606        1.3572775497       -3.6974336271  SOLV      5785            0.0000000000
     17468      5796  TIP3      H1             35.6284205278        0.7618238568       -3.0747334111  SOLV      5785            0.0000000000
     17469      5796  TIP3      H2             36.8318592952        1.6721286301       -3.1945854759  SOLV      5785            0.0000000000
     17470      5797  TIP3      OH2            39.6838884951        2.3373914936        3.8501662520  SOLV      5786            0.0000000000
     17471      5797  TIP3      H1             38.7494446577        2.0445739359        3.9270035556  SOLV      5786            0.0000000000
     17472      5797  TIP3      H2             40.0944322628        1.4492237759        3.7941309326  SOLV      5786            0.0000000000
     17473      5798  TIP3      OH2            38.2936793888        4.1177051224        0.7242442555  SOLV      5787            0.0000000000
     17474      5798  TIP3      H1             37.5310295482        4.5305576929        0.2677844143  SOLV      5787            0.0000000000
     17475      5798  TIP3      H2             38.5617834320        4.8890392138        1.2529702468  SOLV      5787            0.0000000000
     17476      5799  TIP3      OH2            38.1380624581        2.3774703776       -2.2675615853  SOLV      5788            0.0000000000
     17477      5799  TIP3      H1             38.1723355703        2.2298584285       -1.3037790396  SOLV      5788            0.0000000000
     17478      5799  TIP3      H2             39.0696333283        2.2279143670       -2.4972639431  SOLV      5788            0.0000000000
     17479      5800  TIP3      OH2            35.3362065808        0.4144483276       -7.7959499450  SOLV      5789            0.0000000000
     17480      5800  TIP3      H1             34.4920363449        0.1556586621       -8.2150129208  SOLV      5789            0.0000000000
     17481      5800  TIP3      H2             35.4145136673        1.3117603940       -8.1761816459  SOLV      5789            0.0000000000
     17482      5801  TIP3      OH2           -27.8357879077        3.8966694924       10.1328082190  SOLV      5790            0.0000000000
     17483      5801  TIP3      H1            -28.2154685654        4.7636128602        9.8891815569  SOLV      5790            0.0000000000
     17484      5801  TIP3      H2            -28.5143195664        3.3111317402        9.7472701446  SOLV      5790            0.0000000000
     17485      5802  TIP3      OH2           -27.9975206379        3.9856522003       14.0477366663  SOLV      5791            0.0000000000
     17486      5802  TIP3      H1            -27.5597377918        3.7187430232       14.8815174457  SOLV      5791            0.0000000000
     17487      5802  TIP3      H2            -28.2768196389        3.1204456625       13.7032012940  SOLV      5791            0.0000000000
     17488      5803  TIP3      OH2           -25.4439130358        6.9993999417       10.7967103311  SOLV      5792            0.0000000000
     17489      5803  TIP3      H1            -25.5169491669        6.2579288221       11.4146571082  SOLV      5792            0.0000000000
     17490      5803  TIP3      H2            -25.0529466534        7.6939119441       11.3539707730  SOLV      5792            0.0000000000
     17491      5804  TIP3      OH2           -28.8970196789       11.5133578831       11.0217703782  SOLV      5793            0.0000000000
     17492      5804  TIP3      H1            -28.6437722526       10.9031244179       10.3001222710  SOLV      5793            0.0000000000
     17493      5804  TIP3      H2            -28.6817449636       10.9697816940       11.7925710592  SOLV      5793            0.0000000000
     17494      5805  TIP3      OH2           -29.8739432337        6.2013726911       14.4145430482  SOLV      5794            0.0000000000
     17495      5805  TIP3      H1            -29.4452009957        5.3705741239       14.1260514237  SOLV      5794            0.0000000000
     17496      5805  TIP3      H2            -29.0576780054        6.6914066077       14.6537265600  SOLV      5794            0.0000000000
     17497      5806  TIP3      OH2           -19.7201469800       -0.6099713854       14.3730157685  SOLV      5795            0.0000000000
     17498      5806  TIP3      H1            -19.4088737705        0.2202727160       14.7850008366  SOLV      5795            0.0000000000
     17499      5806  TIP3      H2            -19.4296916091       -0.4925688199       13.4504288357  SOLV      5795            0.0000000000
     17500      5807  TIP3      OH2           -25.7814437316        1.2296752069       14.6867933840  SOLV      5796            0.0000000000
     17501      5807  TIP3      H1            -25.3210571797        0.4017803285       14.9345005060  SOLV      5796            0.0000000000
     17502      5807  TIP3      H2            -26.0874565982        1.0002905298       13.7880761315  SOLV      5796            0.0000000000
     17503      5808  TIP3      OH2           -32.3743815673       -2.1633849882       14.3857311328  SOLV      5797            0.0000000000
     17504      5808  TIP3      H1            -32.5076175876       -1.4500039431       13.7291986687  SOLV      5797            0.0000000000
     17505      5808  TIP3      H2            -32.8221145076       -2.9058339705       13.9310027068  SOLV      5797            0.0000000000
     17506      5809  TIP3      OH2           -25.4220803552       -1.2595947547       10.5336559453  SOLV      5798            0.0000000000
     17507      5809  TIP3      H1            -24.7498737253       -1.4164163581       11.2395101465  SOLV      5798            0.0000000000
     17508      5809  TIP3      H2            -24.8346315588       -0.9555777429        9.8175222711  SOLV      5798            0.0000000000
     17509      5810  TIP3      OH2           -31.6068043447        1.7588337190       13.4489830770  SOLV      5799            0.0000000000
     17510      5810  TIP3      H1            -30.6573719762        1.5250728738       13.5670838451  SOLV      5799            0.0000000000
     17511      5810  TIP3      H2            -31.9790602628        0.9049309815       13.1415519353  SOLV      5799            0.0000000000
     17512      5811  TIP3      OH2           -18.9638206935        1.5096559897       16.0466822705  SOLV      5800            0.0000000000
     17513      5811  TIP3      H1            -19.8344928106        1.9235349658       15.8692672184  SOLV      5800            0.0000000000
     17514      5811  TIP3      H2            -18.8828749914        1.6999222339       16.9940980242  SOLV      5800            0.0000000000
     17515      5812  TIP3      OH2           -32.1019346698       -2.6518967958       18.6624210699  SOLV      5801            0.0000000000
     17516      5812  TIP3      H1            -32.7568334294       -2.2629087439       18.0494323477  SOLV      5801            0.0000000000
     17517      5812  TIP3      H2            -32.4753280118       -2.3660147721       19.5265126346  SOLV      5801            0.0000000000
     17518      5813  TIP3      OH2           -29.2031916176        5.8983377085        8.8220878023  SOLV      5802            0.0000000000
     17519      5813  TIP3      H1            -29.3385987197        5.7843347880        7.8639091874  SOLV      5802            0.0000000000
     17520      5813  TIP3      H2            -29.2762003473        6.8478581867        8.9333381692  SOLV      5802            0.0000000000
     17521      5814  TIP3      OH2           -31.3499644645        5.4267795573       16.5892483085  SOLV      5803            0.0000000000
     17522      5814  TIP3      H1            -32.0834443793        6.0081360706       16.8167394815  SOLV      5803            0.0000000000
     17523      5814  TIP3      H2            -30.9233555867        5.8910135638       15.8370743269  SOLV      5803            0.0000000000
     17524      5815  TIP3      OH2           -23.4524582666       -1.1697012619       12.3587788146  SOLV      5804            0.0000000000
     17525      5815  TIP3      H1            -23.2740513646       -1.8618020687       13.0062994491  SOLV      5804            0.0000000000
     17526      5815  TIP3      H2            -22.8797301556       -0.4428462398       12.6685929782  SOLV      5804            0.0000000000
     17527      5816  TIP3      OH2           -33.5682602004       -1.3666766639       16.7202034885  SOLV      5805            0.0000000000
     17528      5816  TIP3      H1            -33.0194358877       -0.5748142148       16.9120500892  SOLV      5805            0.0000000000
     17529      5816  TIP3      H2            -33.1031248121       -1.6963130723       15.9166910699  SOLV      5805            0.0000000000
     17530      5817  TIP3      OH2           -24.8138136379        9.4368433824       12.4253454671  SOLV      5806            0.0000000000
     17531      5817  TIP3      H1            -25.7290792566        9.3493737190       12.7674893790  SOLV      5806            0.0000000000
     17532      5817  TIP3      H2            -24.8648913044       10.2936608792       11.9560787184  SOLV      5806            0.0000000000
     17533      5818  TIP3      OH2           -21.8171548475       -1.5605414566       16.0561802252  SOLV      5807            0.0000000000
     17534      5818  TIP3      H1            -22.6830230185       -1.3266136070       15.6819515677  SOLV      5807            0.0000000000
     17535      5818  TIP3      H2            -21.1954976975       -1.2634827508       15.3596337029  SOLV      5807            0.0000000000
     17536      5819  TIP3      OH2           -28.8826896609       -5.2370314052       15.7559826032  SOLV      5808            0.0000000000
     17537      5819  TIP3      H1            -28.9454219921       -6.1784897949       16.0022939536  SOLV      5808            0.0000000000
     17538      5819  TIP3      H2            -29.6632455606       -4.8880036659       16.2416436396  SOLV      5808            0.0000000000
     17539      5820  TIP3      OH2           -27.9230045869        9.8026193115        9.0481784831  SOLV      5809            0.0000000000
     17540      5820  TIP3      H1            -27.4197025606        8.9715181028        8.8647571549  SOLV      5809            0.0000000000
     17541      5820  TIP3      H2            -27.2511897977       10.4521772159        8.7291118967  SOLV      5809            0.0000000000
     17542      5821  TIP3      OH2           -26.5217290886        7.5940213182        8.3175313664  SOLV      5810            0.0000000000
     17543      5821  TIP3      H1            -26.3411767131        6.8480461164        7.7195112022  SOLV      5810            0.0000000000
     17544      5821  TIP3      H2            -26.0576155482        7.3122365275        9.1386327118  SOLV      5810            0.0000000000
     17545      5822  TIP3      OH2           -22.5505527231        8.5120244652       15.8316401066  SOLV      5811            0.0000000000
     17546      5822  TIP3      H1            -22.6112370371        7.7029421078       15.2769309122  SOLV      5811            0.0000000000
     17547      5822  TIP3      H2            -22.6288653420        9.2207997791       15.1642262034  SOLV      5811            0.0000000000
     17548      5823  TIP3      OH2           -29.4512121738        2.4270957369        8.4714592856  SOLV      5812            0.0000000000
     17549      5823  TIP3      H1            -30.2424076812        2.9614237869        8.2436931065  SOLV      5812            0.0000000000
     17550      5823  TIP3      H2            -29.0175866812        2.3390276031        7.6005329715  SOLV      5812            0.0000000000
     17551      5824  TIP3      OH2           -29.9679927023        0.3039912354        5.5631983913  SOLV      5813            0.0000000000
     17552      5824  TIP3      H1            -29.2911822714        0.8482068518        6.0041812990  SOLV      5813            0.0000000000
     17553      5824  TIP3      H2            -29.3927994598       -0.3255796988        5.0791140803  SOLV      5813            0.0000000000
     17554      5825  TIP3      OH2           -20.5474143800        4.9163390994       14.3335473577  SOLV      5814            0.0000000000
     17555      5825  TIP3      H1            -21.3861440276        5.4201790868       14.3958403824  SOLV      5814            0.0000000000
     17556      5825  TIP3      H2            -20.2609752553        5.1543031926       13.4279995799  SOLV      5814            0.0000000000
     17557      5826  TIP3      OH2           -26.0657459399        3.3025541665        8.1153545145  SOLV      5815            0.0000000000
     17558      5826  TIP3      H1            -26.5937462772        3.4933013011        8.9242923216  SOLV      5815            0.0000000000
     17559      5826  TIP3      H2            -25.2209910832        3.0177460376        8.5272144971  SOLV      5815            0.0000000000
     17560      5827  TIP3      OH2           -23.7230008733        3.6230359356       17.3165100397  SOLV      5816            0.0000000000
     17561      5827  TIP3      H1            -23.7132786202        4.4335500195       17.8670294872  SOLV      5816            0.0000000000
     17562      5827  TIP3      H2            -24.5870364775        3.7078072779       16.8749764290  SOLV      5816            0.0000000000
     17563      5828  TIP3      OH2           -33.5566750765        3.2335051662       12.1955058011  SOLV      5817            0.0000000000
     17564      5828  TIP3      H1            -33.9309900230        2.6739298152       11.4811415649  SOLV      5817            0.0000000000
     17565      5828  TIP3      H2            -32.8644475255        2.6496648405       12.5812115158  SOLV      5817            0.0000000000
     17566      5829  TIP3      OH2           -32.3111580174        7.5513736236       13.8673703287  SOLV      5818            0.0000000000
     17567      5829  TIP3      H1            -32.6675933972        7.1787476298       13.0446171904  SOLV      5818            0.0000000000
     17568      5829  TIP3      H2            -31.4420453715        7.1053961279       13.9511267059  SOLV      5818            0.0000000000
     17569      5830  TIP3      OH2           -32.3818731932        2.9588598167       15.8136238587  SOLV      5819            0.0000000000
     17570      5830  TIP3      H1            -31.9309483793        2.6252271174       15.0072287260  SOLV      5819            0.0000000000
     17571      5830  TIP3      H2            -31.8603565233        3.7527072073       16.0517463175  SOLV      5819            0.0000000000
     17572      5831  TIP3      OH2           -27.2803099145        9.3854574748       13.6176819059  SOLV      5820            0.0000000000
     17573      5831  TIP3      H1            -27.2478160610       10.1087451200       14.2662307864  SOLV      5820            0.0000000000
     17574      5831  TIP3      H2            -27.3424721723        8.5896425769       14.1876304375  SOLV      5820            0.0000000000
     17575      5832  TIP3      OH2           -31.0684281965        8.5712139548       18.8319481307  SOLV      5821            0.0000000000
     17576      5832  TIP3      H1            -31.5472975910        8.6976926170       19.6834247567  SOLV      5821            0.0000000000
     17577      5832  TIP3      H2            -31.7889561634        8.2636753484       18.2689649189  SOLV      5821            0.0000000000
     17578      5833  TIP3      OH2           -27.7244371413        1.8959049771        6.3905495577  SOLV      5822            0.0000000000
     17579      5833  TIP3      H1            -27.1051103958        2.4818824193        6.8782204629  SOLV      5822            0.0000000000
     17580      5833  TIP3      H2            -27.4481102912        2.0796570260        5.4571481779  SOLV      5822            0.0000000000
     17581      5834  TIP3      OH2           -30.7158221143        9.3002917632        9.0249701238  SOLV      5823            0.0000000000
     17582      5834  TIP3      H1            -29.8171235929        9.3513129006        9.3892054234  SOLV      5823            0.0000000000
     17583      5834  TIP3      H2            -30.6159538198        8.6597170315        8.2845514132  SOLV      5823            0.0000000000
     17584      5835  TIP3      OH2           -22.5373937039       -5.7933650947        6.8991215180  SOLV      5824            0.0000000000
     17585      5835  TIP3      H1            -23.3489659935       -5.5710845399        7.4030502302  SOLV      5824            0.0000000000
     17586      5835  TIP3      H2            -22.3894963328       -4.9602281262        6.4066032277  SOLV      5824            0.0000000000
     17587      5836  TIP3      OH2           -34.8021307217        1.9857564222       10.0500603847  SOLV      5825            0.0000000000
     17588      5836  TIP3      H1            -35.2480174178        2.0270343654        9.1911702941  SOLV      5825            0.0000000000
     17589      5836  TIP3      H2            -35.3797541498        1.3717442931       10.5500748426  SOLV      5825            0.0000000000
     17590      5837  TIP3      OH2           -24.5058611446        7.9258865671        2.4364993907  SOLV      5826            0.0000000000
     17591      5837  TIP3      H1            -24.4197969214        8.8817147048        2.2248783309  SOLV      5826            0.0000000000
     17592      5837  TIP3      H2            -23.5853803109        7.6173110208        2.2957151815  SOLV      5826            0.0000000000
     17593      5838  TIP3      OH2           -20.1407653395       11.9754820051       16.3399452430  SOLV      5827            0.0000000000
     17594      5838  TIP3      H1            -20.1284490820       11.0088620685       16.4917806914  SOLV      5827            0.0000000000
     17595      5838  TIP3      H2            -20.9645894066       12.2153280290       16.8165320339  SOLV      5827            0.0000000000
     17596      5839  TIP3      OH2           -29.0103746719        9.7350475023       17.4932952197  SOLV      5828            0.0000000000
     17597      5839  TIP3      H1            -28.9575186591       10.6484885318       17.8565404707  SOLV      5828            0.0000000000
     17598      5839  TIP3      H2            -29.7767376876        9.3847230659       18.0028734505  SOLV      5828            0.0000000000
     17599      5840  TIP3      OH2           -29.4197745760       10.1233016371        3.5081932000  SOLV      5829            0.0000000000
     17600      5840  TIP3      H1            -28.8493560811        9.4094755919        3.1424608778  SOLV      5829            0.0000000000
     17601      5840  TIP3      H2            -29.0079763609       10.2742699918        4.3806609855  SOLV      5829            0.0000000000
     17602      5841  TIP3      OH2           -28.8608259524       10.6339309228        6.2167518286  SOLV      5830            0.0000000000
     17603      5841  TIP3      H1            -29.6823701907       10.3329188603        6.6211457632  SOLV      5830            0.0000000000
     17604      5841  TIP3      H2            -28.2083870530       10.4015052218        6.8995863320  SOLV      5830            0.0000000000
     17605      5842  TIP3      OH2           -21.2501186914        3.2414745103       19.1174922067  SOLV      5831            0.0000000000
     17606      5842  TIP3      H1            -22.0067458664        3.3163922191       18.5202696234  SOLV      5831            0.0000000000
     17607      5842  TIP3      H2            -21.0079268893        2.2993389533       19.0134658254  SOLV      5831            0.0000000000
     17608      5843  TIP3      OH2           -31.2273096604       -4.6651502177       17.0695995352  SOLV      5832            0.0000000000
     17609      5843  TIP3      H1            -32.1306461717       -4.8894677724       16.7767688797  SOLV      5832            0.0000000000
     17610      5843  TIP3      H2            -31.4264300345       -3.8779763681       17.6208991103  SOLV      5832            0.0000000000
     17611      5844  TIP3      OH2           -25.9829637256       -3.2538210666       19.0299662239  SOLV      5833            0.0000000000
     17612      5844  TIP3      H1            -25.3648115644       -3.0350132596       19.7706826770  SOLV      5833            0.0000000000
     17613      5844  TIP3      H2            -26.7967057304       -3.4445246877       19.5373892159  SOLV      5833            0.0000000000
     17614      5845  TIP3      OH2           -23.5741045782        0.9959146897       18.3285185532  SOLV      5834            0.0000000000
     17615      5845  TIP3      H1            -24.0095654404        1.0321271272       19.2095984151  SOLV      5834            0.0000000000
     17616      5845  TIP3      H2            -23.7488796851        1.8838538006       17.9647831681  SOLV      5834            0.0000000000
     17617      5846  TIP3      OH2           -26.8895824238        2.3369936856        3.8881095199  SOLV      5835            0.0000000000
     17618      5846  TIP3      H1            -27.3023448229        2.1026396559        3.0336066926  SOLV      5835            0.0000000000
     17619      5846  TIP3      H2            -26.0259165608        2.6810220009        3.5856232714  SOLV      5835            0.0000000000
     17620      5847  TIP3      OH2           -29.8211248856       -3.9442271712        6.9087254613  SOLV      5836            0.0000000000
     17621      5847  TIP3      H1            -30.1681167690       -4.0046619808        7.8204131968  SOLV      5836            0.0000000000
     17622      5847  TIP3      H2            -30.1920954514       -4.7681669606        6.5360181797  SOLV      5836            0.0000000000
     17623      5848  TIP3      OH2           -31.8909381445        0.7652143788       17.3472071536  SOLV      5837            0.0000000000
     17624      5848  TIP3      H1            -32.2408867256        1.0354968160       18.2246921239  SOLV      5837            0.0000000000
     17625      5848  TIP3      H2            -32.1050510246        1.5613590530       16.8139629314  SOLV      5837            0.0000000000
     17626      5849  TIP3      OH2           -33.1105839876       -0.3610600601       12.4576346681  SOLV      5838            0.0000000000
     17627      5849  TIP3      H1            -34.0373572705       -0.6354682899       12.6003534679  SOLV      5838            0.0000000000
     17628      5849  TIP3      H2            -32.9485758143       -0.7661340302       11.5751174013  SOLV      5838            0.0000000000
     17629      5850  TIP3      OH2           -28.1707610748        0.4032339510        9.8164024856  SOLV      5839            0.0000000000
     17630      5850  TIP3      H1            -28.6402557326        1.1194567412        9.3382683293  SOLV      5839            0.0000000000
     17631      5850  TIP3      H2            -27.5964524411        0.0394105699        9.1106565183  SOLV      5839            0.0000000000
     17632      5851  TIP3      OH2           -26.3502190204        3.3542877326       20.8566584165  SOLV      5840            0.0000000000
     17633      5851  TIP3      H1            -26.5292918070        2.5254854951       21.3498958992  SOLV      5840            0.0000000000
     17634      5851  TIP3      H2            -25.3981185382        3.4822140620       21.0441873963  SOLV      5840            0.0000000000
     17635      5852  TIP3      OH2           -26.6424468396        0.6965121278       12.1279911749  SOLV      5841            0.0000000000
     17636      5852  TIP3      H1            -27.2839777488        0.8908888729       11.4130740231  SOLV      5841            0.0000000000
     17637      5852  TIP3      H2            -26.2267770036       -0.0904747394       11.7162412187  SOLV      5841            0.0000000000
     17638      5853  TIP3      OH2           -33.1263230524        1.3339197172       19.7059913325  SOLV      5842            0.0000000000
     17639      5853  TIP3      H1            -33.7594332431        1.8833021689       20.1967999181  SOLV      5842            0.0000000000
     17640      5853  TIP3      H2            -33.3170997085        0.4399158908       20.0415326224  SOLV      5842            0.0000000000
     17641      5854  TIP3      OH2           -33.2029414366       -4.2216486989        6.5370495918  SOLV      5843            0.0000000000
     17642      5854  TIP3      H1            -33.3301573586       -4.1913052748        7.5046630566  SOLV      5843            0.0000000000
     17643      5854  TIP3      H2            -33.9815913999       -3.7141801968        6.2318142142  SOLV      5843            0.0000000000
     17644      5855  TIP3      OH2           -26.6354834874        3.1683181199       16.3421574301  SOLV      5844            0.0000000000
     17645      5855  TIP3      H1            -26.2484492108        2.4770158654       15.7525009249  SOLV      5844            0.0000000000
     17646      5855  TIP3      H2            -26.8553342950        2.6110541320       17.1204456803  SOLV      5844            0.0000000000
     17647      5856  TIP3      OH2           -29.7701952782       -2.0267050795       13.1346499715  SOLV      5845            0.0000000000
     17648      5856  TIP3      H1            -30.5017121109       -2.1600612320       13.7620944973  SOLV      5845            0.0000000000
     17649      5856  TIP3      H2            -28.9964863629       -2.3419478446       13.6416910696  SOLV      5845            0.0000000000
     17650      5857  TIP3      OH2           -35.5312487132       -1.6516482997       13.0142012352  SOLV      5846            0.0000000000
     17651      5857  TIP3      H1            -36.3646342709       -1.9669541964       12.6328646483  SOLV      5846            0.0000000000
     17652      5857  TIP3      H2            -34.9943590419       -2.4731515727       13.0029669440  SOLV      5846            0.0000000000
     17653      5858  TIP3      OH2           -32.8640829673       -1.6683668106       10.0685322089  SOLV      5847            0.0000000000
     17654      5858  TIP3      H1            -31.9047094544       -1.5629828853        9.8996976357  SOLV      5847            0.0000000000
     17655      5858  TIP3      H2            -33.2785930547       -1.4511950664        9.2033355263  SOLV      5847            0.0000000000
     17656      5859  TIP3      OH2           -24.8963748951       -1.3334657930       15.2306691145  SOLV      5848            0.0000000000
     17657      5859  TIP3      H1            -25.2945127635       -1.2623286074       16.1232635675  SOLV      5848            0.0000000000
     17658      5859  TIP3      H2            -25.4402074660       -2.0177702326       14.8177725548  SOLV      5848            0.0000000000
     17659      5860  TIP3      OH2           -34.3208690426       -1.2832700590        7.7570374968  SOLV      5849            0.0000000000
     17660      5860  TIP3      H1            -34.8903168091       -1.8226170103        7.1730894271  SOLV      5849            0.0000000000
     17661      5860  TIP3      H2            -33.7520025049       -0.8534595163        7.0840030735  SOLV      5849            0.0000000000
     17662      5861  TIP3      OH2           -23.1783452513       15.5165437287       17.3332853447  SOLV      5850            0.0000000000
     17663      5861  TIP3      H1            -23.1833759597       15.7573001453       16.3885297160  SOLV      5850            0.0000000000
     17664      5861  TIP3      H2            -22.3569652794       15.9542033790       17.6379149356  SOLV      5850            0.0000000000
     17665      5862  TIP3      OH2           -29.0123513970        1.1407984684       14.0911731761  SOLV      5851            0.0000000000
     17666      5862  TIP3      H1            -28.3118207229        0.7014148757       13.5846829301  SOLV      5851            0.0000000000
     17667      5862  TIP3      H2            -28.9796454958        0.6565887127       14.9407943459  SOLV      5851            0.0000000000
     17668      5863  TIP3      OH2           -33.8712015547       -3.9531273926       12.9085462260  SOLV      5852            0.0000000000
     17669      5863  TIP3      H1            -34.1765215548       -4.7457800242       13.3955392946  SOLV      5852            0.0000000000
     17670      5863  TIP3      H2            -33.2986389316       -4.3486456555       12.2339437383  SOLV      5852            0.0000000000
     17671      5864  TIP3      OH2           -29.1955600014        0.1429860716       16.8554615976  SOLV      5853            0.0000000000
     17672      5864  TIP3      H1            -30.1003077189        0.4580241499       17.0494948557  SOLV      5853            0.0000000000
     17673      5864  TIP3      H2            -28.6335646236        0.7267497502       17.4009562390  SOLV      5853            0.0000000000
     17674      5865  TIP3      OH2           -31.7391469871        3.8239553343        7.9002488012  SOLV      5854            0.0000000000
     17675      5865  TIP3      H1            -32.4861815908        3.2349945765        7.6728877703  SOLV      5854            0.0000000000
     17676      5865  TIP3      H2            -32.0413551111        4.2206322042        8.7491304559  SOLV      5854            0.0000000000
     17677      5866  TIP3      OH2           -22.8990124267        6.3562538201       14.1631690708  SOLV      5855            0.0000000000
     17678      5866  TIP3      H1            -22.6420275754        6.8588313152       13.3605801276  SOLV      5855            0.0000000000
     17679      5866  TIP3      H2            -23.7151205978        5.8947977474       13.8745540551  SOLV      5855            0.0000000000
     17680      5867  TIP3      OH2           -27.3029526288       -2.9334677385        6.5994144987  SOLV      5856            0.0000000000
     17681      5867  TIP3      H1            -28.2596011598       -3.1476493187        6.7020467698  SOLV      5856            0.0000000000
     17682      5867  TIP3      H2            -27.2492974224       -1.9952159293        6.8664648729  SOLV      5856            0.0000000000
     17683      5868  TIP3      OH2           -27.9492832890        7.1471604743       17.8153445362  SOLV      5857            0.0000000000
     17684      5868  TIP3      H1            -27.8360444342        6.8704214521       18.7315749934  SOLV      5857            0.0000000000
     17685      5868  TIP3      H2            -28.2974895882        8.0521809228       17.8994549333  SOLV      5857            0.0000000000
     17686      5869  TIP3      OH2           -26.6149687580       -0.4080617202        7.6336066569  SOLV      5858            0.0000000000
     17687      5869  TIP3      H1            -25.6486160369       -0.3874541597        7.7809387506  SOLV      5858            0.0000000000
     17688      5869  TIP3      H2            -26.7666639066        0.3852587286        7.0880333839  SOLV      5858            0.0000000000
     17689      5870  TIP3      OH2           -34.7486937419        3.6662249408       14.6622388040  SOLV      5859            0.0000000000
     17690      5870  TIP3      H1            -34.4602183694        3.5812053899       13.7292530472  SOLV      5859            0.0000000000
     17691      5870  TIP3      H2            -33.9278792278        3.3840781532       15.1242632914  SOLV      5859            0.0000000000
     17692      5871  TIP3      OH2           -30.4272734857        5.5368692619        6.2285979080  SOLV      5860            0.0000000000
     17693      5871  TIP3      H1            -30.8946999976        6.3939915408        6.2994753514  SOLV      5860            0.0000000000
     17694      5871  TIP3      H2            -30.9971351173        4.9503141355        6.7747560785  SOLV      5860            0.0000000000
     17695      5872  TIP3      OH2           -28.8103242724        4.5942021629       21.0280070982  SOLV      5861            0.0000000000
     17696      5872  TIP3      H1            -29.4804118709        3.9286641560       20.7507435445  SOLV      5861            0.0000000000
     17697      5872  TIP3      H2            -27.9733494604        4.1506214794       20.7582940583  SOLV      5861            0.0000000000
     17698      5873  TIP3      OH2           -26.2970460860        9.9217745724       16.8332804218  SOLV      5862            0.0000000000
     17699      5873  TIP3      H1            -27.2492724152        9.7557323536       16.9714080335  SOLV      5862            0.0000000000
     17700      5873  TIP3      H2            -26.0614991732       10.3797103723       17.6590289522  SOLV      5862            0.0000000000
     17701      5874  TIP3      OH2           -22.2373107868        0.5219296362        5.9492457916  SOLV      5863            0.0000000000
     17702      5874  TIP3      H1            -22.8547852788        0.0896909442        5.3124801739  SOLV      5863            0.0000000000
     17703      5874  TIP3      H2            -22.2571862682        1.4219718448        5.5677682755  SOLV      5863            0.0000000000
     17704      5875  TIP3      OH2           -20.0456377776        9.1328921266       16.7614943806  SOLV      5864            0.0000000000
     17705      5875  TIP3      H1            -21.0162461499        8.9933374394       16.6885323306  SOLV      5864            0.0000000000
     17706      5875  TIP3      H2            -19.7673420993        8.7715070071       15.8899024052  SOLV      5864            0.0000000000
     17707      5876  TIP3      OH2           -25.1615103412        8.6508580507        5.0481032542  SOLV      5865            0.0000000000
     17708      5876  TIP3      H1            -25.4431152744        7.8769483837        5.5510349450  SOLV      5865            0.0000000000
     17709      5876  TIP3      H2            -25.0110885822        8.2799935948        4.1568852927  SOLV      5865            0.0000000000
     17710      5877  TIP3      OH2           -25.2363937236        4.9848966693       13.2951117132  SOLV      5866            0.0000000000
     17711      5877  TIP3      H1            -26.1590411049        4.7160834482       13.4473763578  SOLV      5866            0.0000000000
     17712      5877  TIP3      H2            -24.8747805359        4.1626200133       12.9009079343  SOLV      5866            0.0000000000
     17713      5878  TIP3      OH2           -33.6559513704        7.2495537963       11.1947178321  SOLV      5867            0.0000000000
     17714      5878  TIP3      H1            -33.2181088427        7.4747182028       10.3599131594  SOLV      5867            0.0000000000
     17715      5878  TIP3      H2            -34.0526853642        6.3935114279       10.9629258755  SOLV      5867            0.0000000000
     17716      5879  TIP3      OH2           -32.5658034922        4.8714769922       10.2679133741  SOLV      5868            0.0000000000
     17717      5879  TIP3      H1            -32.1081529860        5.5049541843       10.8395305050  SOLV      5868            0.0000000000
     17718      5879  TIP3      H2            -32.8505153516        4.2009560466       10.9230377636  SOLV      5868            0.0000000000
     17719      5880  TIP3      OH2           -31.0779835042       10.6254840571       15.3761107293  SOLV      5869            0.0000000000
     17720      5880  TIP3      H1            -30.5407118368       11.2802096139       14.8930561685  SOLV      5869            0.0000000000
     17721      5880  TIP3      H2            -30.3903948789       10.0854688630       15.8063892586  SOLV      5869            0.0000000000
     17722      5881  TIP3      OH2           -27.3502353990        7.0565506577       15.1604390919  SOLV      5870            0.0000000000
     17723      5881  TIP3      H1            -27.4592043108        7.0094962386       16.1389331225  SOLV      5870            0.0000000000
     17724      5881  TIP3      H2            -26.6002505869        6.4590795988       15.0260213597  SOLV      5870            0.0000000000
     17725      5882  TIP3      OH2           -27.5478636310        5.9971162421        4.0687296971  SOLV      5871            0.0000000000
     17726      5882  TIP3      H1            -27.0636339008        5.7466566359        4.8842021574  SOLV      5871            0.0000000000
     17727      5882  TIP3      H2            -28.4259984467        5.6253596535        4.2463368120  SOLV      5871            0.0000000000
     17728      5883  TIP3      OH2           -24.9329628394       12.4008461482       15.7625982988  SOLV      5872            0.0000000000
     17729      5883  TIP3      H1            -25.6951963629       11.7934094379       15.6866539581  SOLV      5872            0.0000000000
     17730      5883  TIP3      H2            -25.0663017043       12.9813596398       14.9824012916  SOLV      5872            0.0000000000
     17731      5884  TIP3      OH2           -24.2168516316       10.6650374813        2.2187502105  SOLV      5873            0.0000000000
     17732      5884  TIP3      H1            -23.8770728487       11.3710512957        1.6457985514  SOLV      5873            0.0000000000
     17733      5884  TIP3      H2            -25.0097399799       11.1197536771        2.5745402480  SOLV      5873            0.0000000000
     17734      5885  TIP3      OH2           -33.2431411682       -1.5810328467       20.8909710191  SOLV      5874            0.0000000000
     17735      5885  TIP3      H1            -34.1906874764       -1.3871432666       21.0339023561  SOLV      5874            0.0000000000
     17736      5885  TIP3      H2            -33.0549404220       -2.0896486976       21.6999296755  SOLV      5874            0.0000000000
     17737      5886  TIP3      OH2           -25.9654997897        5.4375689449        6.3475834151  SOLV      5875            0.0000000000
     17738      5886  TIP3      H1            -26.0925781547        4.6820538283        6.9603524838  SOLV      5875            0.0000000000
     17739      5886  TIP3      H2            -25.0166224626        5.3088540364        6.1270723361  SOLV      5875            0.0000000000
     17740      5887  TIP3      OH2           -33.9147919201        5.6230867613        3.8495698547  SOLV      5876            0.0000000000
     17741      5887  TIP3      H1            -33.8250845737        4.6830403050        3.5986157584  SOLV      5876            0.0000000000
     17742      5887  TIP3      H2            -33.8813240465        5.5638697750        4.8303778683  SOLV      5876            0.0000000000
     17743      5888  TIP3      OH2           -33.9165120688        5.6195411706        6.5893450647  SOLV      5877            0.0000000000
     17744      5888  TIP3      H1            -33.9641239704        4.9296411802        7.2556273144  SOLV      5877            0.0000000000
     17745      5888  TIP3      H2            -34.7738614167        6.0794316122        6.7302210705  SOLV      5877            0.0000000000
     17746      5889  TIP3      OH2           -25.6982228048       -0.8037095899       17.8380469554  SOLV      5878            0.0000000000
     17747      5889  TIP3      H1            -24.7966943412       -0.5216512405       18.0836915140  SOLV      5878            0.0000000000
     17748      5889  TIP3      H2            -25.7796330162       -1.6651395318       18.3051484170  SOLV      5878            0.0000000000
     17749      5890  TIP3      OH2           -26.8675802407       -3.4038125749        9.4232969608  SOLV      5879            0.0000000000
     17750      5890  TIP3      H1            -26.9128383528       -3.2134227508        8.4688669800  SOLV      5879            0.0000000000
     17751      5890  TIP3      H2            -26.4270347926       -2.5997127690        9.7753794929  SOLV      5879            0.0000000000
     17752      5891  TIP3      OH2           -31.4443430473        8.0831708581        6.5759374062  SOLV      5880            0.0000000000
     17753      5891  TIP3      H1            -32.3921867487        7.9329285339        6.7838459493  SOLV      5880            0.0000000000
     17754      5891  TIP3      H2            -31.5312857216        8.5250699835        5.7123359686  SOLV      5880            0.0000000000
     17755      5892  TIP3      OH2           -30.0714234923       -1.5284924020       10.4307370665  SOLV      5881            0.0000000000
     17756      5892  TIP3      H1            -29.3811014119       -0.8555506498       10.2480536405  SOLV      5881            0.0000000000
     17757      5892  TIP3      H2            -29.9354986095       -1.6687327196       11.3955947688  SOLV      5881            0.0000000000
     17758      5893  TIP3      OH2           -27.2043887812        1.5109375034       18.4353084091  SOLV      5882            0.0000000000
     17759      5893  TIP3      H1            -26.9260009911        1.8463229211       19.3039076577  SOLV      5882            0.0000000000
     17760      5893  TIP3      H2            -26.6881528146        0.6787835113       18.3576279093  SOLV      5882            0.0000000000
     17761      5894  TIP3      OH2           -28.5565499155       -4.3767714641       11.3546372429  SOLV      5883            0.0000000000
     17762      5894  TIP3      H1            -28.3070761997       -3.7905364503       12.0905727981  SOLV      5883            0.0000000000
     17763      5894  TIP3      H2            -27.9424783944       -4.0427873535       10.6574177680  SOLV      5883            0.0000000000
     17764      5895  TIP3      OH2           -34.1837808907        8.5105594765        6.8395644867  SOLV      5884            0.0000000000
     17765      5895  TIP3      H1            -34.4320928779        8.4086857245        5.8992829728  SOLV      5884            0.0000000000
     17766      5895  TIP3      H2            -35.0545791641        8.3237820952        7.2368836485  SOLV      5884            0.0000000000
     17767      5896  TIP3      OH2           -33.4335491543       -4.3163083293        9.3018091966  SOLV      5885            0.0000000000
     17768      5896  TIP3      H1            -33.4146263738       -3.4141266623        9.6794264265  SOLV      5885            0.0000000000
     17769      5896  TIP3      H2            -32.4773061772       -4.5291005725        9.3631162991  SOLV      5885            0.0000000000
     17770      5897  TIP3      OH2           -20.8840314558        0.5983390076       18.2212562212  SOLV      5886            0.0000000000
     17771      5897  TIP3      H1            -21.8580966897        0.5900812346       18.3422741719  SOLV      5886            0.0000000000
     17772      5897  TIP3      H2            -20.8071717271       -0.0263845707       17.4857290677  SOLV      5886            0.0000000000
     17773      5898  TIP3      OH2           -24.3723518122        2.5460638392       12.1494696598  SOLV      5887            0.0000000000
     17774      5898  TIP3      H1            -25.1135860109        1.9246661900       12.2628257191  SOLV      5887            0.0000000000
     17775      5898  TIP3      H2            -23.6467053513        2.0801576397       12.6240700019  SOLV      5887            0.0000000000
     17776      5899  TIP3      OH2           -24.6789781488       12.1126142648       11.6041924673  SOLV      5888            0.0000000000
     17777      5899  TIP3      H1            -25.0908478689       12.6012022967       10.8548603988  SOLV      5888            0.0000000000
     17778      5899  TIP3      H2            -23.7295448528       12.3004486581       11.4208321472  SOLV      5888            0.0000000000
     17779      5900  TIP3      OH2           -33.9945319468       -5.2331293403       16.9507864547  SOLV      5889            0.0000000000
     17780      5900  TIP3      H1            -34.2388259567       -5.6321933714       16.0936507489  SOLV      5889            0.0000000000
     17781      5900  TIP3      H2            -34.0467823678       -6.0064461490       17.5541277983  SOLV      5889            0.0000000000
     17782      5901  TIP3      OH2           -31.0931863536       12.4762050853       21.5082006552  SOLV      5890            0.0000000000
     17783      5901  TIP3      H1            -30.8156473092       11.5722566181       21.7357687251  SOLV      5890            0.0000000000
     17784      5901  TIP3      H2            -32.0069725157       12.3576283100       21.2204612619  SOLV      5890            0.0000000000
     17785      5902  TIP3      OH2           -32.2100696058        7.6882756225        3.2703157523  SOLV      5891            0.0000000000
     17786      5902  TIP3      H1            -32.8509327447        6.9668080289        3.4720896979  SOLV      5891            0.0000000000
     17787      5902  TIP3      H2            -31.5019738864        7.1797024590        2.8314027111  SOLV      5891            0.0000000000
     17788      5903  TIP3      OH2           -25.6861185974       11.0114742062       19.4754796236  SOLV      5892            0.0000000000
     17789      5903  TIP3      H1            -25.1034644197       10.2758560108       19.7090346253  SOLV      5892            0.0000000000
     17790      5903  TIP3      H2            -25.0584627568       11.7603493608       19.5507305186  SOLV      5892            0.0000000000
     17791      5904  TIP3      OH2           -27.9773711872        8.1389138210        2.2749746406  SOLV      5893            0.0000000000
     17792      5904  TIP3      H1            -27.5485001511        7.4882734771        2.8634592300  SOLV      5893            0.0000000000
     17793      5904  TIP3      H2            -27.4305213871        8.0939051875        1.4642561875  SOLV      5893            0.0000000000
     17794      5905  TIP3      OH2           -35.5811501046        3.0241516386        5.3471023873  SOLV      5894            0.0000000000
     17795      5905  TIP3      H1            -35.0954575531        2.6725101735        6.1119703489  SOLV      5894            0.0000000000
     17796      5905  TIP3      H2            -34.9270142345        2.8818103332        4.6301963110  SOLV      5894            0.0000000000
     17797      5906  TIP3      OH2           -29.2845103655        7.2830883308       20.8674099144  SOLV      5895            0.0000000000
     17798      5906  TIP3      H1            -29.8739584515        7.3237591519       20.0993560626  SOLV      5895            0.0000000000
     17799      5906  TIP3      H2            -29.0743570153        6.3210473463       20.9180910275  SOLV      5895            0.0000000000
     17800      5907  TIP3      OH2           -30.6323041744        4.9475209660        3.5211970943  SOLV      5896            0.0000000000
     17801      5907  TIP3      H1            -30.6773682897        5.0328543097        4.4934109176  SOLV      5896            0.0000000000
     17802      5907  TIP3      H2            -30.6441460810        3.9687980654        3.4214710289  SOLV      5896            0.0000000000
     17803      5908  TIP3      OH2           -24.6615280634        7.5320050127       17.3006136198  SOLV      5897            0.0000000000
     17804      5908  TIP3      H1            -23.8530079040        7.8513764073       16.8497314935  SOLV      5897            0.0000000000
     17805      5908  TIP3      H2            -25.3081022738        8.1952594080       17.0083113535  SOLV      5897            0.0000000000
     17806      5909  TIP3      OH2           -33.7979666571        2.0469857172        7.4203110875  SOLV      5898            0.0000000000
     17807      5909  TIP3      H1            -33.7569092981        1.6477536176        8.3045593729  SOLV      5898            0.0000000000
     17808      5909  TIP3      H2            -33.4004634816        1.3281586796        6.8764116750  SOLV      5898            0.0000000000
     17809      5910  TIP3      OH2           -30.6687326124        2.8617157774       20.0735677885  SOLV      5899            0.0000000000
     17810      5910  TIP3      H1            -31.6300095897        2.8358753678       19.9256157814  SOLV      5899            0.0000000000
     17811      5910  TIP3      H2            -30.3197010857        3.1169935143       19.1864901781  SOLV      5899            0.0000000000
     17812      5911  TIP3      OH2           -32.7041912161       -0.0073537086        5.9956696272  SOLV      5900            0.0000000000
     17813      5911  TIP3      H1            -32.9350448386        0.0490725391        5.0408202754  SOLV      5900            0.0000000000
     17814      5911  TIP3      H2            -31.7250629113       -0.0624166590        5.9287526539  SOLV      5900            0.0000000000
     17815      5912  TIP3      OH2           -24.5812185719        3.2130674384        2.6778369355  SOLV      5901            0.0000000000
     17816      5912  TIP3      H1            -24.7686340835        2.7781205577        1.8194680641  SOLV      5901            0.0000000000
     17817      5912  TIP3      H2            -24.9352195624        4.1106538942        2.4702284148  SOLV      5901            0.0000000000
     17818      5913  TIP3      OH2           -29.8990726861        0.4817483324       21.1946042428  SOLV      5902            0.0000000000
     17819      5913  TIP3      H1            -29.8525102751       -0.2748822694       20.5713707858  SOLV      5902            0.0000000000
     17820      5913  TIP3      H2            -30.2113401230        1.2071925675       20.6150583604  SOLV      5902            0.0000000000
     17821      5914  TIP3      OH2           -29.7040408148       -1.5047722025       19.2174629524  SOLV      5903            0.0000000000
     17822      5914  TIP3      H1            -29.3914443959       -1.1569597814       18.3625383621  SOLV      5903            0.0000000000
     17823      5914  TIP3      H2            -30.5730697803       -1.8845860593       18.9710894766  SOLV      5903            0.0000000000
     17824      5915  TIP3      OH2           -29.5552992031        3.7011324337       17.7692176702  SOLV      5904            0.0000000000
     17825      5915  TIP3      H1            -28.6624400750        3.8084213148       17.4092777197  SOLV      5904            0.0000000000
     17826      5915  TIP3      H2            -30.0522920424        4.4247120951       17.3399468783  SOLV      5904            0.0000000000
     17827      5916  TIP3      OH2           -23.5820122636        3.5249138062       21.6938237468  SOLV      5905            0.0000000000
     17828      5916  TIP3      H1            -23.4845036991        2.5656711355       21.7693644378  SOLV      5905            0.0000000000
     17829      5916  TIP3      H2            -22.8252773194        3.7570497610       21.1360334556  SOLV      5905            0.0000000000
     17830      5917  TIP3      OH2           -23.3245984903        5.8891948508       18.9971156260  SOLV      5906            0.0000000000
     17831      5917  TIP3      H1            -23.9047891328        6.4845821519       18.4666977252  SOLV      5906            0.0000000000
     17832      5917  TIP3      H2            -22.4446399308        6.1028689108       18.6020101008  SOLV      5906            0.0000000000
     17833      5918  TIP3      OH2           -31.0482397671        1.5657829150       23.5359986329  SOLV      5907            0.0000000000
     17834      5918  TIP3      H1            -31.7872607219        0.9344725949       23.6502433223  SOLV      5907            0.0000000000
     17835      5918  TIP3      H2            -30.7474337733        1.3388564540       22.6306604657  SOLV      5907            0.0000000000
     17836      5919  TIP3      OH2           -28.5288319609       -3.9686855047       19.9632930793  SOLV      5908            0.0000000000
     17837      5919  TIP3      H1            -29.0083213302       -3.1463532779       19.7409088386  SOLV      5908            0.0000000000
     17838      5919  TIP3      H2            -29.2106200110       -4.6560846857       19.8206853537  SOLV      5908            0.0000000000
     17839      5920  TIP3      OH2           -27.3346159578        1.1240893968       22.0520663723  SOLV      5909            0.0000000000
     17840      5920  TIP3      H1            -27.4197539427        0.8390535214       22.9810768789  SOLV      5909            0.0000000000
     17841      5920  TIP3      H2            -28.2133702151        0.8396018925       21.7218513392  SOLV      5909            0.0000000000
     17842      5921  TIP3      OH2           -24.7459628278        0.6959428817       20.7717474892  SOLV      5910            0.0000000000
     17843      5921  TIP3      H1            -25.5668612040        0.5416093657       21.2700595227  SOLV      5910            0.0000000000
     17844      5921  TIP3      H2            -24.3163006208       -0.1744601886       20.9374622009  SOLV      5910            0.0000000000
     17845      5922  TIP3      OH2           -22.1171737620       -0.2381353879       22.2218303883  SOLV      5911            0.0000000000
     17846      5922  TIP3      H1            -22.6989687042       -1.0108335054       22.0356666395  SOLV      5911            0.0000000000
     17847      5922  TIP3      H2            -22.4671481383        0.0633541209       23.0731838374  SOLV      5911            0.0000000000
     17848      5923  TIP3      OH2           -32.8570323608       -0.4501682871       24.2365362120  SOLV      5912            0.0000000000
     17849      5923  TIP3      H1            -32.9788693963       -1.2800414737       23.7422186811  SOLV      5912            0.0000000000
     17850      5923  TIP3      H2            -32.2963803957       -0.7585126761       24.9752382766  SOLV      5912            0.0000000000
     17851      5924  TIP3      OH2           -27.6741740011       -3.9726713642       22.5746754230  SOLV      5913            0.0000000000
     17852      5924  TIP3      H1            -26.8468353854       -4.4775993404       22.4522670145  SOLV      5913            0.0000000000
     17853      5924  TIP3      H2            -27.9971400097       -3.9607046071       21.6512896761  SOLV      5913            0.0000000000
     17854      5925  TIP3      OH2           -26.9823732845       -1.8050633116       24.2047415917  SOLV      5914            0.0000000000
     17855      5925  TIP3      H1            -27.0145224265       -2.4512057420       23.4675384841  SOLV      5914            0.0000000000
     17856      5925  TIP3      H2            -27.7271303796       -1.2097453633       23.9956865640  SOLV      5914            0.0000000000
     17857      5926  TIP3      OH2           -34.4935681445       10.9120735631        5.4202152524  SOLV      5915            0.0000000000
     17858      5926  TIP3      H1            -33.6886463625       10.6265015857        4.9337516764  SOLV      5915            0.0000000000
     17859      5926  TIP3      H2            -35.0130606744       11.2599589573        4.6564326903  SOLV      5915            0.0000000000
     17860      5927  TIP3      OH2           -22.1217604312       12.9929560116       11.2665823617  SOLV      5916            0.0000000000
     17861      5927  TIP3      H1            -21.8251360238       13.3196868189       12.1342864298  SOLV      5916            0.0000000000
     17862      5927  TIP3      H2            -21.4550386121       13.3604985189       10.6658666356  SOLV      5916            0.0000000000
     17863      5928  TIP3      OH2           -21.8435058238       13.2026500399       14.1006372273  SOLV      5917            0.0000000000
     17864      5928  TIP3      H1            -22.2806043560       12.3259533504       14.0225773815  SOLV      5917            0.0000000000
     17865      5928  TIP3      H2            -21.0947682226       12.9545453886       14.6677125215  SOLV      5917            0.0000000000
     17866      5929  TIP3      OH2           -21.9208683749       10.3278437293       19.5999258391  SOLV      5918            0.0000000000
     17867      5929  TIP3      H1            -22.0798335362        9.9480715447       20.4691235352  SOLV      5918            0.0000000000
     17868      5929  TIP3      H2            -21.1041263164       10.8488732844       19.7214047207  SOLV      5918            0.0000000000
     17869      5930  TIP3      OH2           -23.2327202138        5.1151448280        5.9900452247  SOLV      5919            0.0000000000
     17870      5930  TIP3      H1            -22.5720600606        5.7623435983        5.6777543463  SOLV      5919            0.0000000000
     17871      5930  TIP3      H2            -22.7804548350        4.7492436407        6.7846236081  SOLV      5919            0.0000000000
     17872      5931  TIP3      OH2           -21.9434872454        3.8140546597        8.0556838571  SOLV      5920            0.0000000000
     17873      5931  TIP3      H1            -22.6057640610        3.3752572031        8.6345880072  SOLV      5920            0.0000000000
     17874      5931  TIP3      H2            -21.2757662811        4.1316658388        8.6967653235  SOLV      5920            0.0000000000
     17875      5932  TIP3      OH2           -21.4197633172        7.7280811623       12.2824724669  SOLV      5921            0.0000000000
     17876      5932  TIP3      H1            -20.8430241391        7.0300167963       11.9059471858  SOLV      5921            0.0000000000
     17877      5932  TIP3      H2            -21.3566527427        8.4333435209       11.6101243828  SOLV      5921            0.0000000000
     17878      5933  TIP3      OH2           -23.0865272408       10.7236424282       14.2114123114  SOLV      5922            0.0000000000
     17879      5933  TIP3      H1            -23.8149798040       11.0202959072       14.7805752528  SOLV      5922            0.0000000000
     17880      5933  TIP3      H2            -23.5609131513       10.2375392642       13.5026937952  SOLV      5922            0.0000000000
     17881      5934  TIP3      OH2           -22.5323198884        2.9111309632        4.4294792866  SOLV      5923            0.0000000000
     17882      5934  TIP3      H1            -23.2708942179        2.8801551418        3.7769525439  SOLV      5923            0.0000000000
     17883      5934  TIP3      H2            -22.8662498857        3.6297949949        5.0065087406  SOLV      5923            0.0000000000
     17884      5935  TIP3      OH2           -23.8772076007       -0.3855204894        3.9799792194  SOLV      5924            0.0000000000
     17885      5935  TIP3      H1            -24.3026965953       -0.1338731109        3.1529261946  SOLV      5924            0.0000000000
     17886      5935  TIP3      H2            -24.0764247984       -1.3493516938        3.9888207646  SOLV      5924            0.0000000000
     17887      5936  TIP3      OH2           -23.8248409891        2.3421858565        9.4491050727  SOLV      5925            0.0000000000
     17888      5936  TIP3      H1            -23.7297202045        1.3793964380        9.3453816037  SOLV      5925            0.0000000000
     17889      5936  TIP3      H2            -23.9539258407        2.4333927086       10.4201464864  SOLV      5925            0.0000000000
     17890      5937  TIP3      OH2           -20.9450416611        6.5740494593       17.9505994647  SOLV      5926            0.0000000000
     17891      5937  TIP3      H1            -20.2016441292        5.9339036988       17.9310336092  SOLV      5926            0.0000000000
     17892      5937  TIP3      H2            -20.4978128707        7.4090139047       17.7607342676  SOLV      5926            0.0000000000
     17893      5938  TIP3      OH2           -19.1023762501        4.5180236506       17.9637297333  SOLV      5927            0.0000000000
     17894      5938  TIP3      H1            -19.8166453220        4.1311351848       18.5115341323  SOLV      5927            0.0000000000
     17895      5938  TIP3      H2            -18.3662794153        3.9169202833       18.2058418631  SOLV      5927            0.0000000000
     17896      5939  TIP3      OH2           -24.4161075817       -3.0410830833        3.8730991813  SOLV      5928            0.0000000000
     17897      5939  TIP3      H1            -23.6601586435       -3.3916306207        4.3885794924  SOLV      5928            0.0000000000
     17898      5939  TIP3      H2            -25.1256616506       -3.6793064336        4.0480528525  SOLV      5928            0.0000000000
     17899      5940  TIP3      OH2           -23.7997834639       -0.4963802770        8.3560971593  SOLV      5929            0.0000000000
     17900      5940  TIP3      H1            -23.4124770205       -1.3872800488        8.5418899764  SOLV      5929            0.0000000000
     17901      5940  TIP3      H2            -23.2092223331       -0.2113923457        7.6356715425  SOLV      5929            0.0000000000
     17902      5941  TIP3      OH2           -22.2494470603        1.2486429092       13.3508068858  SOLV      5930            0.0000000000
     17903      5941  TIP3      H1            -21.3899616250        1.4794184326       12.9292540774  SOLV      5930            0.0000000000
     17904      5941  TIP3      H2            -22.0731329828        1.5897635686       14.2502566086  SOLV      5930            0.0000000000
     17905      5942  TIP3      OH2           -21.4927014341        2.6753009622       15.6393887057  SOLV      5931            0.0000000000
     17906      5942  TIP3      H1            -22.2516528064        3.0090898790       16.1522880700  SOLV      5931            0.0000000000
     17907      5942  TIP3      H2            -21.1430502308        3.5001111482       15.2380169883  SOLV      5931            0.0000000000
     17908      5943  TIP3      OH2           -16.7290698756       -1.1715038217       21.2256457749  SOLV      5932            0.0000000000
     17909      5943  TIP3      H1            -16.3061415989       -1.9477255729       20.8028105509  SOLV      5932            0.0000000000
     17910      5943  TIP3      H2            -17.2299668620       -0.8066539435       20.4633045084  SOLV      5932            0.0000000000
     17911      5944  TIP3      OH2           -22.7796547844       -2.9999558570        8.8504680264  SOLV      5933            0.0000000000
     17912      5944  TIP3      H1            -22.2911206939       -3.1674646300        9.6847986572  SOLV      5933            0.0000000000
     17913      5944  TIP3      H2            -23.3702336138       -3.7816785168        8.8335890297  SOLV      5933            0.0000000000
     17914      5945  TIP3      OH2           -35.7349980763       -3.0750595479       16.5463270159  SOLV      5934            0.0000000000
     17915      5945  TIP3      H1            -35.2555754219       -3.8386438677       16.9256433959  SOLV      5934            0.0000000000
     17916      5945  TIP3      H2            -35.0339851474       -2.3968203228       16.6114638769  SOLV      5934            0.0000000000
     17917      5946  TIP3      OH2           -18.3261644241       -0.0984076102       19.2661182244  SOLV      5935            0.0000000000
     17918      5946  TIP3      H1            -19.1449560384        0.3708689476       19.5292731825  SOLV      5935            0.0000000000
     17919      5946  TIP3      H2            -18.7046009324       -0.8000572498       18.6950041963  SOLV      5935            0.0000000000
     17920      5947  TIP3      OH2           -21.9927461592       -3.6930451554        5.1322298733  SOLV      5936            0.0000000000
     17921      5947  TIP3      H1            -21.5596802187       -4.3936236844        4.6028722313  SOLV      5936            0.0000000000
     17922      5947  TIP3      H2            -21.3008993048       -3.0003719695        5.1615553807  SOLV      5936            0.0000000000
     17923      5948  TIP3      OH2           -26.3141700002       11.6159517968        7.8290016951  SOLV      5937            0.0000000000
     17924      5948  TIP3      H1            -25.7953699497       11.5508615829        6.9975034974  SOLV      5937            0.0000000000
     17925      5948  TIP3      H2            -25.8192721239       12.3042777110        8.3046434340  SOLV      5937            0.0000000000
     17926      5949  TIP3      OH2           -28.7943303235       12.2886769957       18.4022776494  SOLV      5938            0.0000000000
     17927      5949  TIP3      H1            -28.4246704867       12.3252616263       19.3144069797  SOLV      5938            0.0000000000
     17928      5949  TIP3      H2            -28.1938341021       12.8983430202       17.9251683259  SOLV      5938            0.0000000000
     17929      5950  TIP3      OH2           -27.2218033867       14.0869953920       17.0197560032  SOLV      5939            0.0000000000
     17930      5950  TIP3      H1            -26.5168758291       13.6041416026       16.5604628642  SOLV      5939            0.0000000000
     17931      5950  TIP3      H2            -26.6899295283       14.6348565132       17.6421607847  SOLV      5939            0.0000000000
     17932      5951  TIP3      OH2           -19.3559051452       -2.3616850652       17.9339938120  SOLV      5940            0.0000000000
     17933      5951  TIP3      H1            -20.2666546015       -2.5689099051       17.6587153601  SOLV      5940            0.0000000000
     17934      5951  TIP3      H2            -18.9721013006       -3.2661146558       17.9754999041  SOLV      5940            0.0000000000
     17935      5952  TIP3      OH2           -30.1724552635       12.8719243141       13.7056442158  SOLV      5941            0.0000000000
     17936      5952  TIP3      H1            -29.9028883383       13.3629607862       12.9081765183  SOLV      5941            0.0000000000
     17937      5952  TIP3      H2            -30.1645654495       13.5742781113       14.3905016162  SOLV      5941            0.0000000000
     17938      5953  TIP3      OH2           -27.4586085593       12.1035036690       14.4659576116  SOLV      5942            0.0000000000
     17939      5953  TIP3      H1            -28.3353551294       12.3047144792       14.1047794648  SOLV      5942            0.0000000000
     17940      5953  TIP3      H2            -26.8895449263       12.7415908914       13.9945553485  SOLV      5942            0.0000000000
     17941      5954  TIP3      OH2           -25.5043426317       13.8910089248       13.5287687826  SOLV      5943            0.0000000000
     17942      5954  TIP3      H1            -25.5644453219       14.7618651588       13.0779566568  SOLV      5943            0.0000000000
     17943      5954  TIP3      H2            -25.1518284481       13.3249308275       12.8050344953  SOLV      5943            0.0000000000
     17944      5955  TIP3      OH2           -33.2109675251       10.0712682506       13.7411684881  SOLV      5944            0.0000000000
     17945      5955  TIP3      H1            -33.0177902671        9.1017258257       13.6911622201  SOLV      5944            0.0000000000
     17946      5955  TIP3      H2            -32.4578896038       10.2978973435       14.3386162194  SOLV      5944            0.0000000000
     17947      5956  TIP3      OH2           -27.4158992454       -3.3665813222       14.0330688155  SOLV      5945            0.0000000000
     17948      5956  TIP3      H1            -27.7183995631       -4.0495504700       14.6612119240  SOLV      5945            0.0000000000
     17949      5956  TIP3      H2            -26.5578564211       -3.7308251678       13.7304114471  SOLV      5945            0.0000000000
     17950      5957  TIP3      OH2           -22.0723072315       -4.2497307362       13.4140587821  SOLV      5946            0.0000000000
     17951      5957  TIP3      H1            -21.6992032273       -3.9267893544       12.5629299192  SOLV      5946            0.0000000000
     17952      5957  TIP3      H2            -23.0227723704       -4.2802867392       13.2092422299  SOLV      5946            0.0000000000
     17953      5958  TIP3      OH2           -21.0562466420       -3.3157378626       11.0071866483  SOLV      5947            0.0000000000
     17954      5958  TIP3      H1            -20.3824565778       -3.9096013761       10.6131034958  SOLV      5947            0.0000000000
     17955      5958  TIP3      H2            -20.6821601311       -2.4364758898       10.7780841612  SOLV      5947            0.0000000000
     17956      5959  TIP3      OH2           -34.7795897694       -6.2344051196       14.4362844548  SOLV      5948            0.0000000000
     17957      5959  TIP3      H1            -35.5958736019       -6.7367926604       14.3296509384  SOLV      5948            0.0000000000
     17958      5959  TIP3      H2            -34.1306953376       -6.9754745012       14.4225385136  SOLV      5948            0.0000000000
     17959      5960  TIP3      OH2           -36.6143710509       -7.4763320026       10.9473826644  SOLV      5949            0.0000000000
     17960      5960  TIP3      H1            -36.3116117885       -6.9703974021       10.1687463639  SOLV      5949            0.0000000000
     17961      5960  TIP3      H2            -37.3737556627       -6.9686309533       11.2477642426  SOLV      5949            0.0000000000
     17962      5961  TIP3      OH2           -30.3928129917       -5.7756312932       13.2926006980  SOLV      5950            0.0000000000
     17963      5961  TIP3      H1            -29.8271431550       -5.4420119081       12.5776929479  SOLV      5950            0.0000000000
     17964      5961  TIP3      H2            -29.9058372003       -5.4773460347       14.0798668626  SOLV      5950            0.0000000000
     17965      5962  TIP3      OH2           -24.9160262771       -4.4429704554       13.0269302719  SOLV      5951            0.0000000000
     17966      5962  TIP3      H1            -24.6157271012       -4.8874611803       12.2125968559  SOLV      5951            0.0000000000
     17967      5962  TIP3      H2            -25.0259189662       -5.2288164450       13.6161242096  SOLV      5951            0.0000000000
     17968      5963  TIP3      OH2           -24.6016669231       -5.1410709295        8.6717066073  SOLV      5952            0.0000000000
     17969      5963  TIP3      H1            -25.4684175925       -4.7569972634        8.8842651545  SOLV      5952            0.0000000000
     17970      5963  TIP3      H2            -24.6213493470       -5.9330740260        9.2522964941  SOLV      5952            0.0000000000
     17971      5964  TIP3      OH2           -35.7181833188       -5.9552991952        8.6413065631  SOLV      5953            0.0000000000
     17972      5964  TIP3      H1            -35.2674539071       -6.5684490967        8.0219146683  SOLV      5953            0.0000000000
     17973      5964  TIP3      H2            -34.9670787016       -5.3885937838        8.9186029229  SOLV      5953            0.0000000000
     17974      5965  TIP3      OH2           -30.6629201951       -4.0617340099        9.5437399180  SOLV      5954            0.0000000000
     17975      5965  TIP3      H1            -30.0457596074       -4.5445398030       10.1221762946  SOLV      5954            0.0000000000
     17976      5965  TIP3      H2            -30.4152781456       -3.1445289982        9.7941810012  SOLV      5954            0.0000000000
     17977      5966  TIP3      OH2           -32.0282010511       10.0728445332        4.5176532047  SOLV      5955            0.0000000000
     17978      5966  TIP3      H1            -31.1942654947       10.3940563527        4.1189463040  SOLV      5955            0.0000000000
     17979      5966  TIP3      H2            -32.1883546208        9.2937455799        3.9344928038  SOLV      5955            0.0000000000
     17980      5967  TIP3      OH2           -24.8560323179       11.3335004148        5.5013695973  SOLV      5956            0.0000000000
     17981      5967  TIP3      H1            -24.9164860101       10.3563015692        5.3809632532  SOLV      5956            0.0000000000
     17982      5967  TIP3      H2            -25.2984089783       11.6448399451        4.6845542819  SOLV      5956            0.0000000000
     17983      5968  TIP3      OH2           -32.7110789120       -3.2597919308       23.3826144303  SOLV      5957            0.0000000000
     17984      5968  TIP3      H1            -33.0088294029       -4.0564733117       23.8757549453  SOLV      5957            0.0000000000
     17985      5968  TIP3      H2            -31.7712609782       -3.2523008047       23.6662291884  SOLV      5957            0.0000000000
     17986      5969  TIP3      OH2           -30.1860516454       -3.3199400702       24.5808477164  SOLV      5958            0.0000000000
     17987      5969  TIP3      H1            -29.3447808498       -3.5110508370       24.1245680185  SOLV      5958            0.0000000000
     17988      5969  TIP3      H2            -30.2149590314       -4.0401165041       25.2422057176  SOLV      5958            0.0000000000
     17989      5970  TIP3      OH2           -22.6359201580       12.8272069068       17.3248540150  SOLV      5959            0.0000000000
     17990      5970  TIP3      H1            -23.3941176168       12.5344841502       16.7787421819  SOLV      5959            0.0000000000
     17991      5970  TIP3      H2            -22.8001892060       13.7906892671       17.3593791476  SOLV      5959            0.0000000000
     17992      5971  TIP3      OH2            -9.8849964630        6.5745575819        4.9451729268  SOLV      5960            0.0000000000
     17993      5971  TIP3      H1            -10.2597955830        7.4436496567        4.6915479845  SOLV      5960            0.0000000000
     17994      5971  TIP3      H2            -10.5914573725        5.9889206101        4.6211439512  SOLV      5960            0.0000000000
     17995      5972  TIP3      OH2            -9.9376570781        6.5393447184        8.8740964335  SOLV      5961            0.0000000000
     17996      5972  TIP3      H1             -9.5691685105        6.2462216065        9.7269369086  SOLV      5961            0.0000000000
     17997      5972  TIP3      H2            -10.2763621004        5.6947593062        8.5251277035  SOLV      5961            0.0000000000
     17998      5973  TIP3      OH2           -16.9462017615        5.4465716048       12.3996513009  SOLV      5962            0.0000000000
     17999      5973  TIP3      H1            -16.7434675316        4.7135744441       13.0138914639  SOLV      5962            0.0000000000
     18000      5973  TIP3      H2            -16.1537381644        5.9892681457       12.5306124468  SOLV      5962            0.0000000000
     18001      5974  TIP3      OH2            -7.4299174342        9.5596085831        5.6291502439  SOLV      5963            0.0000000000
     18002      5974  TIP3      H1             -7.6499561456        8.8428414494        6.2387370642  SOLV      5963            0.0000000000
     18003      5974  TIP3      H2             -7.1252803395       10.2623256052        6.2260098798  SOLV      5963            0.0000000000
     18004      5975  TIP3      OH2           -17.2100960026        9.5046948393        9.6322432491  SOLV      5964            0.0000000000
     18005      5975  TIP3      H1            -17.3059403268        8.5357515612        9.6630771637  SOLV      5964            0.0000000000
     18006      5975  TIP3      H2            -16.2403285706        9.5981098117        9.5844762245  SOLV      5964            0.0000000000
     18007      5976  TIP3      OH2           -20.0658636571        1.7587010697        7.2492846142  SOLV      5965            0.0000000000
     18008      5976  TIP3      H1            -20.6248391803        2.4767347490        7.5966179627  SOLV      5965            0.0000000000
     18009      5976  TIP3      H2            -20.7431541371        1.0974967409        7.0234839430  SOLV      5965            0.0000000000
     18010      5977  TIP3      OH2           -19.5391300454        4.4534121299        9.4174731337  SOLV      5966            0.0000000000
     18011      5977  TIP3      H1            -19.1143814432        3.5918637213        9.6373334476  SOLV      5966            0.0000000000
     18012      5977  TIP3      H2            -18.7691863510        4.9797154653        9.1436633558  SOLV      5966            0.0000000000
     18013      5978  TIP3      OH2           -10.9084661439       14.1550641600        5.8263382704  SOLV      5967            0.0000000000
     18014      5978  TIP3      H1            -10.5445167170       13.4477650989        5.2534782362  SOLV      5967            0.0000000000
     18015      5978  TIP3      H2            -11.0135853551       13.6855174875        6.6628584867  SOLV      5967            0.0000000000
     18016      5979  TIP3      OH2           -11.9210808722        8.7557757760        9.2579987906  SOLV      5968            0.0000000000
     18017      5979  TIP3      H1            -11.4764376228        7.9488612863        8.9352180871  SOLV      5968            0.0000000000
     18018      5979  TIP3      H2            -11.1155527897        9.2642358117        9.4948637146  SOLV      5968            0.0000000000
     18019      5980  TIP3      OH2            -1.7277150602        1.9437966019        9.2796909735  SOLV      5969            0.0000000000
     18020      5980  TIP3      H1             -1.4297884689        2.8008518742        9.6417910202  SOLV      5969            0.0000000000
     18021      5980  TIP3      H2             -1.6128659191        2.0864391767        8.3251019770  SOLV      5969            0.0000000000
     18022      5981  TIP3      OH2            -7.6851738899        3.7837790039        9.5873426653  SOLV      5970            0.0000000000
     18023      5981  TIP3      H1             -7.3570140491        2.8773627049        9.7414556974  SOLV      5970            0.0000000000
     18024      5981  TIP3      H2             -8.1922330317        3.6572112050        8.7578314125  SOLV      5970            0.0000000000
     18025      5982  TIP3      OH2           -14.6607318284        0.2356705843        9.1719962907  SOLV      5971            0.0000000000
     18026      5982  TIP3      H1            -14.6000835525        0.9264039028        8.4891289178  SOLV      5971            0.0000000000
     18027      5982  TIP3      H2            -14.9899986408       -0.5161146614        8.6544278390  SOLV      5971            0.0000000000
     18028      5983  TIP3      OH2            -7.5338166638        1.3235050455        5.8333978523  SOLV      5972            0.0000000000
     18029      5983  TIP3      H1             -6.6619824457        1.2389986595        6.2818432473  SOLV      5972            0.0000000000
     18030      5983  TIP3      H2             -7.3597053016        1.9372121186        5.1177986301  SOLV      5972            0.0000000000
     18031      5984  TIP3      OH2           -18.0615502824        2.2975845159       10.2400701767  SOLV      5973            0.0000000000
     18032      5984  TIP3      H1            -17.2438611811        2.1404708402       10.7532414569  SOLV      5973            0.0000000000
     18033      5984  TIP3      H2            -17.9040262630        1.6909977686        9.4867884097  SOLV      5973            0.0000000000
     18034      5985  TIP3      OH2           -13.6866721519        4.3934363631        8.3668535935  SOLV      5974            0.0000000000
     18035      5985  TIP3      H1            -12.7538954966        4.1105645722        8.4597055131  SOLV      5974            0.0000000000
     18036      5985  TIP3      H2            -14.0752670336        3.6454613732        7.8782177755  SOLV      5974            0.0000000000
     18037      5986  TIP3      OH2            -0.9915740272        4.0923057552       10.9327495099  SOLV      5975            0.0000000000
     18038      5986  TIP3      H1             -1.8448359096        4.5135177615       10.6956976613  SOLV      5975            0.0000000000
     18039      5986  TIP3      H2             -0.9806980077        4.2680317956       11.8843016537  SOLV      5975            0.0000000000
     18040      5987  TIP3      OH2           -14.4431114210        0.2253627190       13.6080263418  SOLV      5976            0.0000000000
     18041      5987  TIP3      H1            -15.0466149075        0.5610306275       12.9186286112  SOLV      5976            0.0000000000
     18042      5987  TIP3      H2            -14.9864646579        0.3838269767       14.4074101289  SOLV      5976            0.0000000000
     18043      5988  TIP3      OH2           -11.1743667723        8.6707500490        3.7009885431  SOLV      5977            0.0000000000
     18044      5988  TIP3      H1            -11.3945542326        8.6070173767        2.7594624204  SOLV      5977            0.0000000000
     18045      5988  TIP3      H2            -11.5787117750        9.5284511291        3.9416108160  SOLV      5977            0.0000000000
     18046      5989  TIP3      OH2           -13.3526633107        7.9787802639       11.4856931150  SOLV      5978            0.0000000000
     18047      5989  TIP3      H1            -13.9501146782        8.6630570794       11.8568346727  SOLV      5978            0.0000000000
     18048      5989  TIP3      H2            -12.9264388321        8.4543624691       10.7431626310  SOLV      5978            0.0000000000
     18049      5990  TIP3      OH2            -5.2311975295        1.3891846302        7.2140783259  SOLV      5979            0.0000000000
     18050      5990  TIP3      H1             -5.4371990958        0.8482519723        7.9860930579  SOLV      5979            0.0000000000
     18051      5990  TIP3      H2             -4.8010959200        2.1740413926        7.6095973135  SOLV      5979            0.0000000000
     18052      5991  TIP3      OH2           -15.7436213000        1.3582960635       11.4341879236  SOLV      5980            0.0000000000
     18053      5991  TIP3      H1            -15.0724129150        2.0462605368       11.6427100461  SOLV      5980            0.0000000000
     18054      5991  TIP3      H2            -15.3210061975        0.9268893227       10.6522773383  SOLV      5980            0.0000000000
     18055      5992  TIP3      OH2           -15.0902023470        9.9392626807       12.5128103024  SOLV      5981            0.0000000000
     18056      5992  TIP3      H1            -15.3489349762       10.8222493387       12.1790393871  SOLV      5981            0.0000000000
     18057      5992  TIP3      H2            -15.8804927810        9.7369285703       13.0578216798  SOLV      5981            0.0000000000
     18058      5993  TIP3      OH2           -21.1623297951        6.7837757566        4.8402879631  SOLV      5982            0.0000000000
     18059      5993  TIP3      H1            -21.5826878149        7.0358013458        3.9948870114  SOLV      5982            0.0000000000
     18060      5993  TIP3      H2            -20.9022372146        7.6687757095        5.1882904684  SOLV      5982            0.0000000000
     18061      5994  TIP3      OH2            -6.7802560279       12.0042169513        7.2976993795  SOLV      5983            0.0000000000
     18062      5994  TIP3      H1             -7.6822078119       11.8984105136        7.6781449741  SOLV      5983            0.0000000000
     18063      5994  TIP3      H2             -6.8800915505       12.8521742841        6.8222621360  SOLV      5983            0.0000000000
     18064      5995  TIP3      OH2            -3.8730701740        1.0384364503       10.9452897445  SOLV      5984            0.0000000000
     18065      5995  TIP3      H1             -4.7553843062        1.1929454311       10.5635403381  SOLV      5984            0.0000000000
     18066      5995  TIP3      H2             -3.2757061766        1.3070827473       10.2176620050  SOLV      5984            0.0000000000
     18067      5996  TIP3      OH2           -10.7996861849       -2.6165977329       10.8952648553  SOLV      5985            0.0000000000
     18068      5996  TIP3      H1            -11.0982942877       -3.5402125454       10.8687961896  SOLV      5985            0.0000000000
     18069      5996  TIP3      H2            -11.6160965526       -2.1801899095       11.2155415137  SOLV      5985            0.0000000000
     18070      5997  TIP3      OH2            -9.8426166853       12.4110312428        3.9367214200  SOLV      5986            0.0000000000
     18071      5997  TIP3      H1             -9.3527299436       11.5673736638        3.7781102122  SOLV      5986            0.0000000000
     18072      5997  TIP3      H2             -9.1796625431       13.0442436492        3.5763517815  SOLV      5986            0.0000000000
     18073      5998  TIP3      OH2            -8.4026705986       10.2429116238        3.1414258803  SOLV      5987            0.0000000000
     18074      5998  TIP3      H1             -8.5140175726        9.4235042498        2.6375821049  SOLV      5987            0.0000000000
     18075      5998  TIP3      H2             -7.9952385946        9.9119613502        3.9733314652  SOLV      5987            0.0000000000
     18076      5999  TIP3      OH2            -4.5123738852       11.0505470699       10.7155917795  SOLV      5988            0.0000000000
     18077      5999  TIP3      H1             -4.6574539300       10.2805464781       10.1224990944  SOLV      5988            0.0000000000
     18078      5999  TIP3      H2             -4.7034406466       11.8002954720       10.1137155947  SOLV      5988            0.0000000000
     18079      6000  TIP3      OH2           -11.6333589955        5.0902794931        3.3507479191  SOLV      5989            0.0000000000
     18080      6000  TIP3      H1            -12.3825317075        5.6148564705        3.0175535370  SOLV      5989            0.0000000000
     18081      6000  TIP3      H2            -11.1192898709        4.9303238489        2.5311987923  SOLV      5989            0.0000000000
     18082      6001  TIP3      OH2           -12.0374965413        2.9071094101        0.4105129236  SOLV      5990            0.0000000000
     18083      6001  TIP3      H1            -11.3466038167        3.4264261280        0.8713303855  SOLV      5990            0.0000000000
     18084      6001  TIP3      H2            -11.4734520839        2.2477351080       -0.0458915335  SOLV      5990            0.0000000000
     18085      6002  TIP3      OH2            -2.5632479987        7.5152071704        9.2183987541  SOLV      5991            0.0000000000
     18086      6002  TIP3      H1             -3.4246765754        7.9886458395        9.2331982718  SOLV      5991            0.0000000000
     18087      6002  TIP3      H2             -2.2675191930        7.7331455836        8.3066091767  SOLV      5991            0.0000000000
     18088      6003  TIP3      OH2            -8.1003714264        5.8461232518        2.9666379702  SOLV      5992            0.0000000000
     18089      6003  TIP3      H1             -8.6452002476        6.0597694724        3.7579139573  SOLV      5992            0.0000000000
     18090      6003  TIP3      H2             -7.2697675477        5.5581392714        3.3967665504  SOLV      5992            0.0000000000
     18091      6004  TIP3      OH2            -5.7839145292        6.2144921400       12.1582496494  SOLV      5993            0.0000000000
     18092      6004  TIP3      H1             -5.8529032563        7.0600574013       12.6347391999  SOLV      5993            0.0000000000
     18093      6004  TIP3      H2             -6.6530644064        6.1954778835       11.7046212908  SOLV      5993            0.0000000000
     18094      6005  TIP3      OH2           -14.5033557866        9.8888873627        8.6677794310  SOLV      5994            0.0000000000
     18095      6005  TIP3      H1            -14.6349870572        9.7018506881        7.7248812361  SOLV      5994            0.0000000000
     18096      6005  TIP3      H2            -13.6127517234        9.5132127169        8.8351221449  SOLV      5994            0.0000000000
     18097      6006  TIP3      OH2           -14.4902239975        5.5741317639       10.6857420903  SOLV      5995            0.0000000000
     18098      6006  TIP3      H1            -14.1155956121        5.2096473790        9.8495308109  SOLV      5995            0.0000000000
     18099      6006  TIP3      H2            -13.9556040318        6.3784300841       10.8412281976  SOLV      5995            0.0000000000
     18100      6007  TIP3      OH2            -9.1992346315       11.9202178406        8.4985638248  SOLV      5996            0.0000000000
     18101      6007  TIP3      H1             -9.3005525968       12.7052260914        9.0641030859  SOLV      5996            0.0000000000
     18102      6007  TIP3      H2             -9.3501605843       11.1776289139        9.1184983394  SOLV      5996            0.0000000000
     18103      6008  TIP3      OH2           -13.0464170253       11.0927828285       13.9745876585  SOLV      5997            0.0000000000
     18104      6008  TIP3      H1            -13.6729584355       11.6910075778       14.4358586335  SOLV      5997            0.0000000000
     18105      6008  TIP3      H2            -13.6774431508       10.5479255737       13.4599028427  SOLV      5997            0.0000000000
     18106      6009  TIP3      OH2            -9.9080350757        4.4608947118        1.3076712417  SOLV      5998            0.0000000000
     18107      6009  TIP3      H1             -9.1888301539        4.8589225646        1.8417033540  SOLV      5998            0.0000000000
     18108      6009  TIP3      H2             -9.5417144110        4.5825691963        0.3995134059  SOLV      5998            0.0000000000
     18109      6010  TIP3      OH2           -15.5090130547        6.6555274526       14.9486436700  SOLV      5999            0.0000000000
     18110      6010  TIP3      H1            -15.4487601796        7.5147587384       15.4097532995  SOLV      5999            0.0000000000
     18111      6010  TIP3      H2            -16.4224867167        6.3981320429       15.1927181071  SOLV      5999            0.0000000000
     18112      6011  TIP3      OH2           -12.3057804499       11.2171763682        4.0628046326  SOLV      6000            0.0000000000
     18113      6011  TIP3      H1            -11.4461294972       11.6841646368        4.0849068146  SOLV      6000            0.0000000000
     18114      6011  TIP3      H2            -12.8559801146       11.8272700089        3.5545288393  SOLV      6000            0.0000000000
     18115      6012  TIP3      OH2           -15.1283681798       12.7398006762       14.8517136367  SOLV      6001            0.0000000000
     18116      6012  TIP3      H1            -15.4824527004       12.7847342571       13.9437737958  SOLV      6001            0.0000000000
     18117      6012  TIP3      H2            -15.9354719528       12.5404573395       15.3776613448  SOLV      6001            0.0000000000
     18118      6013  TIP3      OH2            -6.5460546683       10.4771202567       -2.7172890947  SOLV      6002            0.0000000000
     18119      6013  TIP3      H1             -6.4568179083       11.4368642803       -2.9031755245  SOLV      6002            0.0000000000
     18120      6013  TIP3      H2             -5.6237465166       10.1707430059       -2.8557202022  SOLV      6002            0.0000000000
     18121      6014  TIP3      OH2           -19.3295905061        8.0800116024       14.3489481668  SOLV      6003            0.0000000000
     18122      6014  TIP3      H1            -19.9773010847        7.8058518381       13.6744507798  SOLV      6003            0.0000000000
     18123      6014  TIP3      H2            -18.9223872649        7.2260170233       14.6173596038  SOLV      6003            0.0000000000
     18124      6015  TIP3      OH2           -20.7684621906       10.0207358365       10.6049198861  SOLV      6004            0.0000000000
     18125      6015  TIP3      H1            -19.8059939480        9.9608688376       10.5306607230  SOLV      6004            0.0000000000
     18126      6015  TIP3      H2            -20.8636703963       10.7751411655       11.2064920882  SOLV      6004            0.0000000000
     18127      6016  TIP3      OH2            -2.1461167803       14.5722639354       11.2188524071  SOLV      6005            0.0000000000
     18128      6016  TIP3      H1             -2.1571392588       13.6042360754       11.3491695804  SOLV      6005            0.0000000000
     18129      6016  TIP3      H2             -2.9834811891       14.8164932696       11.6733216841  SOLV      6005            0.0000000000
     18130      6017  TIP3      OH2           -11.1047020338       12.3743658894       12.5418185073  SOLV      6006            0.0000000000
     18131      6017  TIP3      H1            -11.1431946219       13.2990262909       12.8673634848  SOLV      6006            0.0000000000
     18132      6017  TIP3      H2            -11.8178490216       11.9600775409       13.0777973310  SOLV      6006            0.0000000000
     18133      6018  TIP3      OH2           -13.4260573441       13.6259079357        2.0743679289  SOLV      6007            0.0000000000
     18134      6018  TIP3      H1            -13.8920028020       13.4555993068        1.2357817324  SOLV      6007            0.0000000000
     18135      6018  TIP3      H2            -13.7806515430       14.4944824588        2.3412627881  SOLV      6007            0.0000000000
     18136      6019  TIP3      OH2           -19.0891957208       12.1471406299        5.9356141256  SOLV      6008            0.0000000000
     18137      6019  TIP3      H1            -18.6100295640       12.0638701440        6.7895712105  SOLV      6008            0.0000000000
     18138      6019  TIP3      H2            -19.6153589746       11.3310762120        5.9374648842  SOLV      6008            0.0000000000
     18139      6020  TIP3      OH2           -11.4626968891       12.6903768105       -1.5716531384  SOLV      6009            0.0000000000
     18140      6020  TIP3      H1            -10.8806661761       11.9850106308       -1.9333129632  SOLV      6009            0.0000000000
     18141      6020  TIP3      H2            -11.1018130610       12.7935208693       -0.6664920973  SOLV      6009            0.0000000000
     18142      6021  TIP3      OH2           -10.9241926857       13.1808262942        1.1227342365  SOLV      6010            0.0000000000
     18143      6021  TIP3      H1            -11.8107881339       13.2703997357        1.5374108754  SOLV      6010            0.0000000000
     18144      6021  TIP3      H2            -10.4178829023       12.7891898539        1.8531878891  SOLV      6010            0.0000000000
     18145      6022  TIP3      OH2            -3.2790604126        5.8133516425       13.9330378990  SOLV      6011            0.0000000000
     18146      6022  TIP3      H1             -4.1193666733        5.9111949947       13.4579552467  SOLV      6011            0.0000000000
     18147      6022  TIP3      H2             -3.1084881311        4.8579913716       13.8194526574  SOLV      6011            0.0000000000
     18148      6023  TIP3      OH2           -17.3098357492        9.9291252626       14.1429254270  SOLV      6012            0.0000000000
     18149      6023  TIP3      H1            -16.7929448485        9.7522647628       14.9561425839  SOLV      6012            0.0000000000
     18150      6023  TIP3      H2            -18.0446571286        9.2864840278       14.2397871196  SOLV      6012            0.0000000000
     18151      6024  TIP3      OH2           -13.2844789199       -1.8647823658       12.0828062418  SOLV      6013            0.0000000000
     18152      6024  TIP3      H1            -14.1666159946       -2.1624084335       11.7763959933  SOLV      6013            0.0000000000
     18153      6024  TIP3      H2            -13.5525654654       -1.0529008703       12.5548968420  SOLV      6013            0.0000000000
     18154      6025  TIP3      OH2            -7.9378107250       -0.6809317201       13.9900316736  SOLV      6014            0.0000000000
     18155      6025  TIP3      H1             -7.2647558072       -0.9986186049       14.6249193918  SOLV      6014            0.0000000000
     18156      6025  TIP3      H2             -8.7806125183       -0.9002818900       14.4384844120  SOLV      6014            0.0000000000
     18157      6026  TIP3      OH2            -5.5226591555        3.6235967541       13.2384552320  SOLV      6015            0.0000000000
     18158      6026  TIP3      H1             -6.1006455868        3.5844435613       14.0338957398  SOLV      6015            0.0000000000
     18159      6026  TIP3      H2             -5.8215239532        4.4410920971       12.7989561745  SOLV      6015            0.0000000000
     18160      6027  TIP3      OH2            -8.9470604879        4.7863106789       -1.2159945906  SOLV      6016            0.0000000000
     18161      6027  TIP3      H1             -9.3226193199        4.5748939803       -2.0912097587  SOLV      6016            0.0000000000
     18162      6027  TIP3      H2             -8.1060278648        5.2089247338       -1.4795071147  SOLV      6016            0.0000000000
     18163      6028  TIP3      OH2           -13.9990569702        3.3797172177       12.2099928146  SOLV      6017            0.0000000000
     18164      6028  TIP3      H1            -14.5154713568        3.5542975236       13.0229131788  SOLV      6017            0.0000000000
     18165      6028  TIP3      H2            -14.1952363498        4.1846573088       11.6818526379  SOLV      6017            0.0000000000
     18166      6029  TIP3      OH2           -15.2591479657        2.0886664358        7.0702349881  SOLV      6018            0.0000000000
     18167      6029  TIP3      H1            -16.1136588844        1.7732541298        7.4323541607  SOLV      6018            0.0000000000
     18168      6029  TIP3      H2            -15.1070324297        1.3987888443        6.4012263677  SOLV      6018            0.0000000000
     18169      6030  TIP3      OH2            -9.8872340161        3.3296953717        4.6328814296  SOLV      6019            0.0000000000
     18170      6030  TIP3      H1            -10.5738487009        3.9242127983        4.2740757777  SOLV      6019            0.0000000000
     18171      6030  TIP3      H2            -10.0637692170        2.5079043175        4.1545456476  SOLV      6019            0.0000000000
     18172      6031  TIP3      OH2            -8.4777444125        5.7708185685       15.5169057862  SOLV      6020            0.0000000000
     18173      6031  TIP3      H1             -8.7121125763        5.0374664414       16.1271767399  SOLV      6020            0.0000000000
     18174      6031  TIP3      H2             -7.5294194456        5.8681801703       15.7169561863  SOLV      6020            0.0000000000
     18175      6032  TIP3      OH2            -8.6806027708        3.4430296283        7.0736503470  SOLV      6021            0.0000000000
     18176      6032  TIP3      H1             -9.2218295520        3.6477385954        6.2771573055  SOLV      6021            0.0000000000
     18177      6032  TIP3      H2             -8.4048426672        2.5368355765        6.8154502286  SOLV      6021            0.0000000000
     18178      6033  TIP3      OH2           -15.8193753710        3.5872114022       14.2833494362  SOLV      6022            0.0000000000
     18179      6033  TIP3      H1            -15.5407235713        4.1984718394       14.9803060804  SOLV      6022            0.0000000000
     18180      6033  TIP3      H2            -15.9190207511        2.7501048693       14.7799720965  SOLV      6022            0.0000000000
     18181      6034  TIP3      OH2           -15.3572656997       -1.5726786136        1.6238016392  SOLV      6023            0.0000000000
     18182      6034  TIP3      H1            -15.2252927105       -1.6377695118        2.5838147050  SOLV      6023            0.0000000000
     18183      6034  TIP3      H2            -16.1829900459       -1.0698326370        1.5367911971  SOLV      6023            0.0000000000
     18184      6035  TIP3      OH2           -19.8044159543       -1.1154249621       10.0308080139  SOLV      6024            0.0000000000
     18185      6035  TIP3      H1            -19.0479668610       -0.8652050657       10.5972051121  SOLV      6024            0.0000000000
     18186      6035  TIP3      H2            -19.3841176842       -1.5491071300        9.2704339747  SOLV      6024            0.0000000000
     18187      6036  TIP3      OH2           -20.2490170726       -1.4857412452        5.3216510685  SOLV      6025            0.0000000000
     18188      6036  TIP3      H1            -19.6822884509       -1.1884280364        4.5815064241  SOLV      6025            0.0000000000
     18189      6036  TIP3      H2            -20.8296256842       -0.7100087067        5.4168876152  SOLV      6025            0.0000000000
     18190      6037  TIP3      OH2            -8.5005024768        5.7343615173       11.2246380551  SOLV      6026            0.0000000000
     18191      6037  TIP3      H1             -8.1755900655        5.0265628173       10.6167328273  SOLV      6026            0.0000000000
     18192      6037  TIP3      H2             -8.8452768785        5.1756125360       11.9554022672  SOLV      6026            0.0000000000
     18193      6038  TIP3      OH2           -11.8454840618        0.9889757830        8.5036605259  SOLV      6027            0.0000000000
     18194      6038  TIP3      H1            -12.5674066013        0.3963349878        8.7557153991  SOLV      6027            0.0000000000
     18195      6038  TIP3      H2            -11.0981886533        0.3780999193        8.4105995448  SOLV      6027            0.0000000000
     18196      6039  TIP3      OH2           -17.5310704612        0.7904552145        7.8433738728  SOLV      6028            0.0000000000
     18197      6039  TIP3      H1            -18.4679576244        0.9468936805        7.6019845019  SOLV      6028            0.0000000000
     18198      6039  TIP3      H2            -17.2599283395        0.0914056351        7.2071884741  SOLV      6028            0.0000000000
     18199      6040  TIP3      OH2            -6.9531391896        1.1342344358       10.0593981491  SOLV      6029            0.0000000000
     18200      6040  TIP3      H1             -7.3208933033        1.2948072561       10.9533769086  SOLV      6029            0.0000000000
     18201      6040  TIP3      H2             -7.6353246230        0.5298422229        9.7006095720  SOLV      6029            0.0000000000
     18202      6041  TIP3      OH2           -16.9106292932        1.8915714231        2.6708652258  SOLV      6030            0.0000000000
     18203      6041  TIP3      H1            -17.3616232723        1.0962314874        2.3290095193  SOLV      6030            0.0000000000
     18204      6041  TIP3      H2            -16.1457529963        1.8849817732        2.0512653307  SOLV      6030            0.0000000000
     18205      6042  TIP3      OH2            -5.1856674102       18.0291513507       12.2076918555  SOLV      6031            0.0000000000
     18206      6042  TIP3      H1             -5.2192912805       18.2679787168       11.2638727663  SOLV      6031            0.0000000000
     18207      6042  TIP3      H2             -4.3813750924       18.4999856232       12.5017528490  SOLV      6031            0.0000000000
     18208      6043  TIP3      OH2           -15.6783318767        9.1489406209       16.3552760291  SOLV      6032            0.0000000000
     18209      6043  TIP3      H1            -14.8864211933        9.4220863937       16.8587449215  SOLV      6032            0.0000000000
     18210      6043  TIP3      H2            -16.3103782927        9.0118635533       17.0892608950  SOLV      6032            0.0000000000
     18211      6044  TIP3      OH2           -11.0207704730        3.7719182241        9.0346220597  SOLV      6033            0.0000000000
     18212      6044  TIP3      H1            -10.6880993283        3.1603256573        8.3590727986  SOLV      6033            0.0000000000
     18213      6044  TIP3      H2            -11.1184205407        3.1534837814        9.7812837663  SOLV      6033            0.0000000000
     18214      6045  TIP3      OH2           -11.3121914997        2.6422290089       11.9417846472  SOLV      6034            0.0000000000
     18215      6045  TIP3      H1            -12.2072933937        3.0320666069       11.9819795820  SOLV      6034            0.0000000000
     18216      6045  TIP3      H2            -10.7432705408        3.3306984099       12.3323970567  SOLV      6034            0.0000000000
     18217      6046  TIP3      OH2           -14.0757372492        6.5650852938        2.7023918231  SOLV      6035            0.0000000000
     18218      6046  TIP3      H1            -14.7107720039        5.8223001944        2.6719152574  SOLV      6035            0.0000000000
     18219      6046  TIP3      H2            -14.2330890942        6.8771963803        3.6245419921  SOLV      6035            0.0000000000
     18220      6047  TIP3      OH2            -4.9352712569        8.8992425608        9.0436744841  SOLV      6036            0.0000000000
     18221      6047  TIP3      H1             -4.7120710893        9.4141076312        8.2408699399  SOLV      6036            0.0000000000
     18222      6047  TIP3      H2             -5.7702975501        8.4513019971        8.7784165594  SOLV      6036            0.0000000000
     18223      6048  TIP3      OH2            -9.9057203619        9.7477412366       12.7494780555  SOLV      6037            0.0000000000
     18224      6048  TIP3      H1             -9.6251104460        9.5339509667       13.6470587058  SOLV      6037            0.0000000000
     18225      6048  TIP3      H2            -10.3061842131       10.6281037186       12.8456729681  SOLV      6037            0.0000000000
     18226      6049  TIP3      OH2           -16.9844522470        6.5067858298        9.5739072049  SOLV      6038            0.0000000000
     18227      6049  TIP3      H1            -16.1173261341        6.3435993575        9.1785160698  SOLV      6038            0.0000000000
     18228      6049  TIP3      H2            -16.8469650876        6.0855773476       10.4409714564  SOLV      6038            0.0000000000
     18229      6050  TIP3      OH2           -12.4425376419        8.0407784852        1.0314115287  SOLV      6039            0.0000000000
     18230      6050  TIP3      H1            -12.9279112853        8.8984996194        1.0505727436  SOLV      6039            0.0000000000
     18231      6050  TIP3      H2            -13.0058208663        7.4963645746        1.6204517341  SOLV      6039            0.0000000000
     18232      6051  TIP3      OH2           -18.1272703707        5.9580040142       15.6448734045  SOLV      6040            0.0000000000
     18233      6051  TIP3      H1            -17.9453756724        5.8583866064       16.6030867421  SOLV      6040            0.0000000000
     18234      6051  TIP3      H2            -18.8414256594        5.3052333050       15.5330069917  SOLV      6040            0.0000000000
     18235      6052  TIP3      OH2           -10.8806408607        7.1452616762       15.8672157526  SOLV      6041            0.0000000000
     18236      6052  TIP3      H1            -11.5228373425        6.5353383529       15.4662129839  SOLV      6041            0.0000000000
     18237      6052  TIP3      H2            -10.0343025285        6.7455951950       15.5708754999  SOLV      6041            0.0000000000
     18238      6053  TIP3      OH2            -8.3290873214       12.3729304822       11.7213781976  SOLV      6042            0.0000000000
     18239      6053  TIP3      H1             -9.2899565472       12.3146015298       11.8643114578  SOLV      6042            0.0000000000
     18240      6053  TIP3      H2             -8.0560944313       12.8770245691       12.5159384893  SOLV      6042            0.0000000000
     18241      6054  TIP3      OH2            -3.8833646217        3.3905342352        0.9916504246  SOLV      6043            0.0000000000
     18242      6054  TIP3      H1             -4.2511291071        2.5582706754        0.6779301590  SOLV      6043            0.0000000000
     18243      6054  TIP3      H2             -4.2114271851        4.0441337649        0.3412792811  SOLV      6043            0.0000000000
     18244      6055  TIP3      OH2            -2.0088281955       11.6902797356       11.5846621595  SOLV      6044            0.0000000000
     18245      6055  TIP3      H1             -2.9843956566       11.5972661825       11.5109768810  SOLV      6044            0.0000000000
     18246      6055  TIP3      H2             -1.7460586114       11.3557541078       10.6966986824  SOLV      6044            0.0000000000
     18247      6056  TIP3      OH2            -7.1787386835       11.2325319798       -0.0805492893  SOLV      6045            0.0000000000
     18248      6056  TIP3      H1             -7.4769363996       10.5111880087        0.4899031624  SOLV      6045            0.0000000000
     18249      6056  TIP3      H2             -7.0523518185       10.7902493005       -0.9407516502  SOLV      6045            0.0000000000
     18250      6057  TIP3      OH2            -7.2591579114        7.5331353215        8.2210309454  SOLV      6046            0.0000000000
     18251      6057  TIP3      H1             -8.1943745715        7.2875580101        8.3551367939  SOLV      6046            0.0000000000
     18252      6057  TIP3      H2             -6.9251802194        6.7196584547        7.7894752034  SOLV      6046            0.0000000000
     18253      6058  TIP3      OH2           -15.8994641562        9.8291042152        5.8417870041  SOLV      6047            0.0000000000
     18254      6058  TIP3      H1            -15.8907168253       10.6225823227        5.2718619828  SOLV      6047            0.0000000000
     18255      6058  TIP3      H2            -16.8472968147        9.6759252505        5.9261588289  SOLV      6047            0.0000000000
     18256      6059  TIP3      OH2           -20.1864215288        2.8673372505        3.0330578527  SOLV      6048            0.0000000000
     18257      6059  TIP3      H1            -20.2085334869        3.8180500190        2.8156379884  SOLV      6048            0.0000000000
     18258      6059  TIP3      H2            -21.0678652243        2.7828145757        3.4792992633  SOLV      6048            0.0000000000
     18259      6060  TIP3      OH2           -14.7808353485        7.3311553746        5.2024424777  SOLV      6049            0.0000000000
     18260      6060  TIP3      H1            -15.0991747315        8.2329429333        5.4031318930  SOLV      6049            0.0000000000
     18261      6060  TIP3      H2            -14.2851781056        7.0958955908        5.9988626927  SOLV      6049            0.0000000000
     18262      6061  TIP3      OH2           -13.2489115540       13.2309750075       10.4659490604  SOLV      6050            0.0000000000
     18263      6061  TIP3      H1            -12.8150012583       13.9563001497        9.9689455291  SOLV      6050            0.0000000000
     18264      6061  TIP3      H2            -12.4885983082       12.8432635122       10.9296180971  SOLV      6050            0.0000000000
     18265      6062  TIP3      OH2           -16.7748656343       12.2038676432        4.3171612117  SOLV      6051            0.0000000000
     18266      6062  TIP3      H1            -17.6276897653       12.3100791406        4.7814468671  SOLV      6051            0.0000000000
     18267      6062  TIP3      H2            -16.4359794595       13.1271691307        4.3428505054  SOLV      6051            0.0000000000
     18268      6063  TIP3      OH2            -9.4265764678        9.6017140433       10.0716719754  SOLV      6052            0.0000000000
     18269      6063  TIP3      H1             -9.5326391304        9.5705672684       11.0501909314  SOLV      6052            0.0000000000
     18270      6063  TIP3      H2             -8.6850563815        8.9944800657        9.9406397337  SOLV      6052            0.0000000000
     18271      6064  TIP3      OH2            -9.5917294308        8.5639067710       -1.0663124615  SOLV      6053            0.0000000000
     18272      6064  TIP3      H1             -9.0625108788        8.3145419307       -0.2748283761  SOLV      6053            0.0000000000
     18273      6064  TIP3      H2            -10.4597320205        8.2125208659       -0.8171995641  SOLV      6053            0.0000000000
     18274      6065  TIP3      OH2            -6.9147333193       14.8925927808       10.5753175079  SOLV      6054            0.0000000000
     18275      6065  TIP3      H1             -7.7146798007       14.3313776296       10.5350187642  SOLV      6054            0.0000000000
     18276      6065  TIP3      H2             -7.0919037156       15.5257090979        9.8453474315  SOLV      6054            0.0000000000
     18277      6066  TIP3      OH2            -6.2566155286       13.2313526275       -2.9174627576  SOLV      6055            0.0000000000
     18278      6066  TIP3      H1             -5.9015379829       13.9564334805       -3.4561102979  SOLV      6055            0.0000000000
     18279      6066  TIP3      H2             -7.0561514201       13.6715806703       -2.5618974027  SOLV      6055            0.0000000000
     18280      6067  TIP3      OH2           -16.1078249300        1.0326288355       15.7083339194  SOLV      6056            0.0000000000
     18281      6067  TIP3      H1            -17.0783700862        1.0610510689       15.8236380758  SOLV      6056            0.0000000000
     18282      6067  TIP3      H2            -15.8414770784        0.4622414182       16.4472659512  SOLV      6056            0.0000000000
     18283      6068  TIP3      OH2            -8.0056266104        7.9430875735        1.1313859460  SOLV      6057            0.0000000000
     18284      6068  TIP3      H1             -8.1463209652        7.2031269343        1.7596014206  SOLV      6057            0.0000000000
     18285      6068  TIP3      H2             -7.0449307510        7.8338272842        0.9600163224  SOLV      6057            0.0000000000
     18286      6069  TIP3      OH2           -18.8887659070       11.8237688085       12.0723162590  SOLV      6058            0.0000000000
     18287      6069  TIP3      H1            -18.3523364514       11.1286602057       12.4924357179  SOLV      6058            0.0000000000
     18288      6069  TIP3      H2            -18.6310585384       12.5965062803       12.5919860934  SOLV      6058            0.0000000000
     18289      6070  TIP3      OH2           -16.0188873783        8.3256720200       -1.0671867773  SOLV      6059            0.0000000000
     18290      6070  TIP3      H1            -15.8724631677        7.4055362504       -1.3520928007  SOLV      6059            0.0000000000
     18291      6070  TIP3      H2            -16.2383427492        8.2059257805       -0.1235964038  SOLV      6059            0.0000000000
     18292      6071  TIP3      OH2           -16.5482125113        8.3464580106        1.6748940749  SOLV      6060            0.0000000000
     18293      6071  TIP3      H1            -15.6949218555        8.1100474930        2.0720168471  SOLV      6060            0.0000000000
     18294      6071  TIP3      H2            -16.5322572446        9.3281468073        1.7415807786  SOLV      6060            0.0000000000
     18295      6072  TIP3      OH2           -18.9766513828        5.1718079494        4.1126199628  SOLV      6061            0.0000000000
     18296      6072  TIP3      H1            -19.6892913142        5.6887065536        4.5429023871  SOLV      6061            0.0000000000
     18297      6072  TIP3      H2            -18.6678845192        5.8476019850        3.4842670451  SOLV      6061            0.0000000000
     18298      6073  TIP3      OH2            -7.6917144905        1.7471508896       12.6925407433  SOLV      6062            0.0000000000
     18299      6073  TIP3      H1             -6.8096083738        2.0017454163       13.0020221476  SOLV      6062            0.0000000000
     18300      6073  TIP3      H2             -7.8439984876        0.8993206855       13.1647610044  SOLV      6062            0.0000000000
     18301      6074  TIP3      OH2           -13.8802683856       10.3184814111        1.1279841674  SOLV      6063            0.0000000000
     18302      6074  TIP3      H1            -14.7513448579       10.5816871969        1.4838565137  SOLV      6063            0.0000000000
     18303      6074  TIP3      H2            -13.7339174234       11.0302591053        0.4868054385  SOLV      6063            0.0000000000
     18304      6075  TIP3      OH2            -9.2798137372        4.1398545125       13.2728845830  SOLV      6064            0.0000000000
     18305      6075  TIP3      H1             -8.9983116237        4.5675607798       14.1038818350  SOLV      6064            0.0000000000
     18306      6075  TIP3      H2             -8.7998142104        3.2876606431       13.2891344924  SOLV      6064            0.0000000000
     18307      6076  TIP3      OH2           -16.4164408275       11.0846949952        1.8137195869  SOLV      6065            0.0000000000
     18308      6076  TIP3      H1            -16.7106621059       11.7879990752        1.1919223863  SOLV      6065            0.0000000000
     18309      6076  TIP3      H2            -16.5738562515       11.5173984543        2.6813412111  SOLV      6065            0.0000000000
     18310      6077  TIP3      OH2            -2.8890074857        3.1295633724       13.1048842611  SOLV      6066            0.0000000000
     18311      6077  TIP3      H1             -3.8636702013        3.1820310549       13.2378815089  SOLV      6066            0.0000000000
     18312      6077  TIP3      H2             -2.8787792657        2.5692859178       12.3132285494  SOLV      6066            0.0000000000
     18313      6078  TIP3      OH2            -6.3974407847        5.1099287119        7.0409470196  SOLV      6067            0.0000000000
     18314      6078  TIP3      H1             -7.2054637951        4.5674896074        7.1518448969  SOLV      6067            0.0000000000
     18315      6078  TIP3      H2             -5.7361624928        4.5921419073        7.5454743191  SOLV      6067            0.0000000000
     18316      6079  TIP3      OH2           -19.2287878640        7.2322784724        1.8017952338  SOLV      6068            0.0000000000
     18317      6079  TIP3      H1            -18.5355644383        7.9183931135        1.8517357476  SOLV      6068            0.0000000000
     18318      6079  TIP3      H2            -18.8223151979        6.6597928921        1.1139473584  SOLV      6068            0.0000000000
     18319      6080  TIP3      OH2           -19.8696864033        0.1129880049        3.0919886012  SOLV      6069            0.0000000000
     18320      6080  TIP3      H1            -19.8820676931        1.0794195729        3.0155273074  SOLV      6069            0.0000000000
     18321      6080  TIP3      H2            -20.5920580235       -0.1630307139        2.5145414837  SOLV      6069            0.0000000000
     18322      6081  TIP3      OH2            -6.7008947708       14.7059933193        6.4902465290  SOLV      6070            0.0000000000
     18323      6081  TIP3      H1             -7.1307959848       15.1844961469        5.7456102648  SOLV      6070            0.0000000000
     18324      6081  TIP3      H2             -5.7563088277       14.8801926138        6.2771465758  SOLV      6070            0.0000000000
     18325      6082  TIP3      OH2           -15.9504777518       -2.5991228304       11.8848365041  SOLV      6071            0.0000000000
     18326      6082  TIP3      H1            -16.2654650472       -2.9263116053       11.0070996721  SOLV      6071            0.0000000000
     18327      6082  TIP3      H2            -16.0512462307       -3.4024476932       12.4327996499  SOLV      6071            0.0000000000
     18328      6083  TIP3      OH2           -20.6355967823        9.4405442022        5.5145563516  SOLV      6072            0.0000000000
     18329      6083  TIP3      H1            -21.2168176332        9.7888001385        6.2053386387  SOLV      6072            0.0000000000
     18330      6083  TIP3      H2            -20.9652493549        9.9246200861        4.7191902071  SOLV      6072            0.0000000000
     18331      6084  TIP3      OH2           -18.9507143393       15.0122988287       16.3218611327  SOLV      6073            0.0000000000
     18332      6084  TIP3      H1            -18.0789908470       15.0172852102       16.7765536552  SOLV      6073            0.0000000000
     18333      6084  TIP3      H2            -19.1256254603       14.0564898772       16.2914360560  SOLV      6073            0.0000000000
     18334      6085  TIP3      OH2           -14.2109433376       14.5452297030       16.7399755531  SOLV      6074            0.0000000000
     18335      6085  TIP3      H1            -13.2648321071       14.3539773185       16.7986615648  SOLV      6074            0.0000000000
     18336      6085  TIP3      H2            -14.4789237933       13.9193369844       16.0353092863  SOLV      6074            0.0000000000
     18337      6086  TIP3      OH2           -14.3568906492       10.3310802149       -1.9846214281  SOLV      6075            0.0000000000
     18338      6086  TIP3      H1            -14.9000953455        9.5949465396       -1.6185788298  SOLV      6075            0.0000000000
     18339      6086  TIP3      H2            -13.6051680346        9.8358547635       -2.3614080788  SOLV      6075            0.0000000000
     18340      6087  TIP3      OH2            -7.8162422186       13.6797066042       14.1062216979  SOLV      6076            0.0000000000
     18341      6087  TIP3      H1             -7.8682344210       12.9744127360       14.7931680141  SOLV      6076            0.0000000000
     18342      6087  TIP3      H2             -7.0345498295       14.1877628716       14.3955418440  SOLV      6076            0.0000000000
     18343      6088  TIP3      OH2           -10.0173695264       10.7070680795       -2.8358344740  SOLV      6077            0.0000000000
     18344      6088  TIP3      H1             -9.6275263165       10.0446125136       -2.2307684881  SOLV      6077            0.0000000000
     18345      6088  TIP3      H2             -9.4429109527       10.6428638383       -3.6237134393  SOLV      6077            0.0000000000
     18346      6089  TIP3      OH2           -17.6939754427        9.1752274869       18.3295985048  SOLV      6078            0.0000000000
     18347      6089  TIP3      H1            -17.6005910797        8.3081778973       18.7687795289  SOLV      6078            0.0000000000
     18348      6089  TIP3      H2            -18.5392288325        9.0671531881       17.8460265323  SOLV      6078            0.0000000000
     18349      6090  TIP3      OH2           -17.9077141809        5.4186507167        0.2874666615  SOLV      6079            0.0000000000
     18350      6090  TIP3      H1            -17.2746040798        5.0848589801        0.9418121122  SOLV      6079            0.0000000000
     18351      6090  TIP3      H2            -17.3004007682        5.5333565055       -0.4810934151  SOLV      6079            0.0000000000
     18352      6091  TIP3      OH2           -11.6078220988        9.9039616125       16.0435515091  SOLV      6080            0.0000000000
     18353      6091  TIP3      H1            -12.0323418854       10.1007172810       15.1840427219  SOLV      6080            0.0000000000
     18354      6091  TIP3      H2            -11.3169738484        8.9733421732       15.9316261010  SOLV      6080            0.0000000000
     18355      6092  TIP3      OH2           -12.7305263545        7.4995782198       -1.6580899937  SOLV      6081            0.0000000000
     18356      6092  TIP3      H1            -12.6945691324        7.6035625364       -0.6859439309  SOLV      6081            0.0000000000
     18357      6092  TIP3      H2            -12.6984473615        6.5197440547       -1.7360802040  SOLV      6081            0.0000000000
     18358      6093  TIP3      OH2            -6.6735918000       10.0282081494       12.1596277964  SOLV      6082            0.0000000000
     18359      6093  TIP3      H1             -5.9153773308       10.4328541033       11.6968826974  SOLV      6082            0.0000000000
     18360      6093  TIP3      H2             -7.3776366304       10.6716337092       11.9536589163  SOLV      6082            0.0000000000
     18361      6094  TIP3      OH2           -16.6182293008        6.3728941633       18.1291313404  SOLV      6083            0.0000000000
     18362      6094  TIP3      H1            -15.8035185145        5.8981558233       18.3287647834  SOLV      6083            0.0000000000
     18363      6094  TIP3      H2            -17.1024554631        6.2913709213       18.9833420483  SOLV      6083            0.0000000000
     18364      6095  TIP3      OH2           -15.8603630622        4.3920478776        2.5353811650  SOLV      6084            0.0000000000
     18365      6095  TIP3      H1            -16.0025311853        3.5060986233        2.9142860533  SOLV      6084            0.0000000000
     18366      6095  TIP3      H2            -15.3396353262        4.0889489028        1.7620479767  SOLV      6084            0.0000000000
     18367      6096  TIP3      OH2           -13.1229655872        5.2318727866       14.7900228891  SOLV      6085            0.0000000000
     18368      6096  TIP3      H1            -13.9262425846        5.7930941016       14.7434882189  SOLV      6085            0.0000000000
     18369      6096  TIP3      H2            -12.6078519675        5.5613352784       14.0158030715  SOLV      6085            0.0000000000
     18370      6097  TIP3      OH2           -14.7790166450        2.5925800751        0.8288221138  SOLV      6086            0.0000000000
     18371      6097  TIP3      H1            -14.9887132596        2.5810429368       -0.1282804344  SOLV      6086            0.0000000000
     18372      6097  TIP3      H2            -13.7980092375        2.5324649673        0.7897473667  SOLV      6086            0.0000000000
     18373      6098  TIP3      OH2            -7.9138937547        9.2453277156       16.0774686889  SOLV      6087            0.0000000000
     18374      6098  TIP3      H1             -7.2195887530        8.8435296503       15.5386139611  SOLV      6087            0.0000000000
     18375      6098  TIP3      H2             -8.0387932872        8.5785838432       16.7766513754  SOLV      6087            0.0000000000
     18376      6099  TIP3      OH2            -6.7018279768        5.8036739658       -2.4669599610  SOLV      6088            0.0000000000
     18377      6099  TIP3      H1             -6.8520341461        5.3355164673       -3.3139159339  SOLV      6088            0.0000000000
     18378      6099  TIP3      H2             -7.0464099254        6.6938402310       -2.7130249413  SOLV      6088            0.0000000000
     18379      6100  TIP3      OH2           -11.8569977592        3.1120698022       15.9496978127  SOLV      6089            0.0000000000
     18380      6100  TIP3      H1            -11.8767230297        2.3209898154       15.3708773955  SOLV      6089            0.0000000000
     18381      6100  TIP3      H2            -12.3286684172        3.7772462779       15.4004204528  SOLV      6089            0.0000000000
     18382      6101  TIP3      OH2           -11.8575074930        0.9619720291       14.1160351088  SOLV      6090            0.0000000000
     18383      6101  TIP3      H1            -11.5717488424        1.3896650917       13.2803314723  SOLV      6090            0.0000000000
     18384      6101  TIP3      H2            -12.7898305264        0.7364891846       13.9065072006  SOLV      6090            0.0000000000
     18385      6102  TIP3      OH2           -11.6551268423        6.3032170456       12.8382189250  SOLV      6091            0.0000000000
     18386      6102  TIP3      H1            -10.7921376090        6.3733065670       12.4118904122  SOLV      6091            0.0000000000
     18387      6102  TIP3      H2            -12.1945804466        6.9513315713       12.3376458351  SOLV      6091            0.0000000000
     18388      6103  TIP3      OH2            -5.8011403703        5.9616639967       16.5967085849  SOLV      6092            0.0000000000
     18389      6103  TIP3      H1             -5.3696142130        5.0937674040       16.6226200001  SOLV      6092            0.0000000000
     18390      6103  TIP3      H2             -5.1226368152        6.5110985927       16.1798548748  SOLV      6092            0.0000000000
     18391      6104  TIP3      OH2            -5.3995260454        8.5432618869       14.0189230149  SOLV      6093            0.0000000000
     18392      6104  TIP3      H1             -5.9724297834        9.0862541582       13.4264881079  SOLV      6093            0.0000000000
     18393      6104  TIP3      H2             -4.5215000329        8.7355930811       13.6215830510  SOLV      6093            0.0000000000
     18394      6105  TIP3      OH2           -13.0427476743        4.1138211944       18.3577475696  SOLV      6094            0.0000000000
     18395      6105  TIP3      H1            -13.7643423697        3.4694113960       18.5130931843  SOLV      6094            0.0000000000
     18396      6105  TIP3      H2            -12.7864493976        3.8972494273       17.4403063752  SOLV      6094            0.0000000000
     18397      6106  TIP3      OH2           -10.5444950987       -1.4158479528       14.8116461504  SOLV      6095            0.0000000000
     18398      6106  TIP3      H1            -11.0497502173       -0.6140495969       14.5538384038  SOLV      6095            0.0000000000
     18399      6106  TIP3      H2            -11.2097024895       -2.1180070834       14.6612957099  SOLV      6095            0.0000000000
     18400      6107  TIP3      OH2            -9.3061270653        3.5791356487       16.9257792440  SOLV      6096            0.0000000000
     18401      6107  TIP3      H1             -9.5259344496        3.4165487096       17.8633802058  SOLV      6096            0.0000000000
     18402      6107  TIP3      H2            -10.1791086856        3.3638566118       16.5273650567  SOLV      6096            0.0000000000
     18403      6108  TIP3      OH2            -6.8810541865        3.2043079646       15.5326766103  SOLV      6097            0.0000000000
     18404      6108  TIP3      H1             -7.6530386746        3.1481392271       16.1314201824  SOLV      6097            0.0000000000
     18405      6108  TIP3      H2             -6.1586086262        2.8368214910       16.0770624487  SOLV      6097            0.0000000000
     18406      6109  TIP3      OH2            -4.5261050843        2.5706002508       16.9745542191  SOLV      6098            0.0000000000
     18407      6109  TIP3      H1             -4.4347917183        1.6016331250       17.0999287680  SOLV      6098            0.0000000000
     18408      6109  TIP3      H2             -4.6029265553        2.8985830461       17.8940567957  SOLV      6098            0.0000000000
     18409      6110  TIP3      OH2           -14.7154844296        1.9513550080       18.8786929759  SOLV      6099            0.0000000000
     18410      6110  TIP3      H1            -14.7192450314        1.0301096873       18.5477504548  SOLV      6099            0.0000000000
     18411      6110  TIP3      H2            -14.3441288875        1.8214859871       19.7741949190  SOLV      6099            0.0000000000
     18412      6111  TIP3      OH2            -9.6294297591       -1.3355420032       17.3910745191  SOLV      6100            0.0000000000
     18413      6111  TIP3      H1             -8.9866459168       -2.0653739473       17.2918402179  SOLV      6100            0.0000000000
     18414      6111  TIP3      H2            -10.0311493224       -1.3394520715       16.4964133617  SOLV      6100            0.0000000000
     18415      6112  TIP3      OH2            -8.9330192689        0.8186994743       18.9454944731  SOLV      6101            0.0000000000
     18416      6112  TIP3      H1             -9.1475522733        0.1039815338       18.3051251392  SOLV      6101            0.0000000000
     18417      6112  TIP3      H2             -9.7215733186        1.3971598405       18.8747287623  SOLV      6101            0.0000000000
     18418      6113  TIP3      OH2           -16.7045650768       13.1309536163       -0.0519407091  SOLV      6102            0.0000000000
     18419      6113  TIP3      H1            -15.7565009894       13.0227796349       -0.2573796944  SOLV      6102            0.0000000000
     18420      6113  TIP3      H2            -16.9815768751       13.6466611736       -0.8333593279  SOLV      6102            0.0000000000
     18421      6114  TIP3      OH2           -21.9457114898        6.9086666299        2.0997015373  SOLV      6103            0.0000000000
     18422      6114  TIP3      H1            -20.9918121332        7.0997916709        1.9586256637  SOLV      6103            0.0000000000
     18423      6114  TIP3      H2            -22.0379371413        6.0385085234        1.6563178513  SOLV      6103            0.0000000000
     18424      6115  TIP3      OH2           -22.7676249394       13.0375106022        6.2591948662  SOLV      6104            0.0000000000
     18425      6115  TIP3      H1            -23.4209263772       12.4369144217        5.8419540587  SOLV      6104            0.0000000000
     18426      6115  TIP3      H2            -22.3275667363       12.4246737265        6.8850205780  SOLV      6104            0.0000000000
     18427      6116  TIP3      OH2           -21.4116745500       11.4670719471        8.0982358533  SOLV      6105            0.0000000000
     18428      6116  TIP3      H1            -21.5284168478       10.7985283936        8.7957358499  SOLV      6105            0.0000000000
     18429      6116  TIP3      H2            -20.8827582132       12.1250655772        8.5856265793  SOLV      6105            0.0000000000
     18430      6117  TIP3      OH2            -4.1356182923       15.5543675821        6.1203033160  SOLV      6106            0.0000000000
     18431      6117  TIP3      H1             -3.8573997226       15.8698785344        6.9981451396  SOLV      6106            0.0000000000
     18432      6117  TIP3      H2             -3.4647263135       15.9381198296        5.5346965167  SOLV      6106            0.0000000000
     18433      6118  TIP3      OH2            -3.8730375574       15.7629705892        8.9472726820  SOLV      6107            0.0000000000
     18434      6118  TIP3      H1             -4.3434914636       14.9029388486        8.8898440829  SOLV      6107            0.0000000000
     18435      6118  TIP3      H2             -3.1218861343       15.4960824680        9.4999964049  SOLV      6107            0.0000000000
     18436      6119  TIP3      OH2            -3.3870851167       12.5247937197       14.6831218019  SOLV      6108            0.0000000000
     18437      6119  TIP3      H1             -4.1152651310       12.6348191581       15.3272166646  SOLV      6108            0.0000000000
     18438      6119  TIP3      H2             -2.9699118542       13.4093614955       14.7058784837  SOLV      6108            0.0000000000
     18439      6120  TIP3      OH2            -5.2544636251        7.6560030158        0.8108486519  SOLV      6109            0.0000000000
     18440      6120  TIP3      H1             -4.5872380427        8.2954903997        0.4915890067  SOLV      6109            0.0000000000
     18441      6120  TIP3      H2             -4.8035978168        7.2938253074        1.6071898159  SOLV      6109            0.0000000000
     18442      6121  TIP3      OH2            -3.9913691921        6.4214666988        2.9108034735  SOLV      6110            0.0000000000
     18443      6121  TIP3      H1             -4.6803963935        5.9711180312        3.4452780508  SOLV      6110            0.0000000000
     18444      6121  TIP3      H2             -3.3712153233        6.7460022263        3.5904812336  SOLV      6110            0.0000000000
     18445      6122  TIP3      OH2            -3.3622128682       10.2970034223        7.2141644965  SOLV      6111            0.0000000000
     18446      6122  TIP3      H1             -2.8742403858        9.5846532627        6.7542872007  SOLV      6111            0.0000000000
     18447      6122  TIP3      H2             -3.4058906400       10.9941866751        6.5309272200  SOLV      6111            0.0000000000
     18448      6123  TIP3      OH2            -5.1259037378       13.2772361328        9.1397674197  SOLV      6112            0.0000000000
     18449      6123  TIP3      H1             -5.8589913980       13.6818337837        9.6417608814  SOLV      6112            0.0000000000
     18450      6123  TIP3      H2             -5.6060016402       12.8180323189        8.4152864760  SOLV      6112            0.0000000000
     18451      6124  TIP3      OH2            -4.6616387094        5.4207467369       -0.7390933926  SOLV      6113            0.0000000000
     18452      6124  TIP3      H1             -5.3708874749        5.4794771842       -1.4199187073  SOLV      6113            0.0000000000
     18453      6124  TIP3      H2             -4.9447155151        6.1511305032       -0.1510854714  SOLV      6113            0.0000000000
     18454      6125  TIP3      OH2            -5.8167206000        4.9737536916        4.3773924943  SOLV      6114            0.0000000000
     18455      6125  TIP3      H1             -5.3888709952        4.1096940409        4.4110331126  SOLV      6114            0.0000000000
     18456      6125  TIP3      H2             -6.0402628681        5.1243748089        5.3246539935  SOLV      6114            0.0000000000
     18457      6126  TIP3      OH2           -19.6105772957        5.7388438195       11.8558835419  SOLV      6115            0.0000000000
     18458      6126  TIP3      H1            -19.6668007311        5.2928281241       10.9840962618  SOLV      6115            0.0000000000
     18459      6126  TIP3      H2            -18.6400782410        5.7001337095       12.0214100085  SOLV      6115            0.0000000000
     18460      6127  TIP3      OH2            -2.9217783973        9.1693156324       12.9389600493  SOLV      6116            0.0000000000
     18461      6127  TIP3      H1             -2.2245941414        8.4887310342       12.8094433199  SOLV      6116            0.0000000000
     18462      6127  TIP3      H2             -2.7229633971        9.8075186526       12.2367410399  SOLV      6116            0.0000000000
     18463      6128  TIP3      OH2            -1.1067443729        7.1493310305       12.9863631657  SOLV      6117            0.0000000000
     18464      6128  TIP3      H1             -1.8665596599        6.6656078124       13.3781965003  SOLV      6117            0.0000000000
     18465      6128  TIP3      H2             -0.3844391197        6.5151178522       13.1880527721  SOLV      6117            0.0000000000
     18466      6129  TIP3      OH2            -4.2435438386        3.7571220724        8.2624740078  SOLV      6118            0.0000000000
     18467      6129  TIP3      H1             -3.3952363300        4.0236718007        7.8422232026  SOLV      6118            0.0000000000
     18468      6129  TIP3      H2             -4.1111978633        4.1460905557        9.1480899485  SOLV      6118            0.0000000000
     18469      6130  TIP3      OH2            -3.5141597437        5.2608679607       10.5186558938  SOLV      6119            0.0000000000
     18470      6130  TIP3      H1             -4.3018201566        5.5762227809       11.0013165920  SOLV      6119            0.0000000000
     18471      6130  TIP3      H2             -3.2032322473        6.0842910417       10.0857744421  SOLV      6119            0.0000000000
     18472      6131  TIP3      OH2           -17.3893925258        2.4749030211       18.6334653018  SOLV      6120            0.0000000000
     18473      6131  TIP3      H1            -16.4106942599        2.4277960096       18.6566226692  SOLV      6120            0.0000000000
     18474      6131  TIP3      H2            -17.6194043632        1.5846160860       18.9625839561  SOLV      6120            0.0000000000
     18475      6132  TIP3      OH2             0.9840442855        1.2292900753       16.0757344596  SOLV      6121            0.0000000000
     18476      6132  TIP3      H1              1.5878913457        0.5808483931       15.6522335736  SOLV      6121            0.0000000000
     18477      6132  TIP3      H2              0.6405853910        1.7154239029       15.2940372361  SOLV      6121            0.0000000000
     18478      6133  TIP3      OH2           -17.8108361765       -0.5453938635       11.9194364949  SOLV      6122            0.0000000000
     18479      6133  TIP3      H1            -17.2219384389       -1.3259066618       11.9797032622  SOLV      6122            0.0000000000
     18480      6133  TIP3      H2            -17.1521188801        0.1580629321       11.7847570057  SOLV      6122            0.0000000000
     18481      6134  TIP3      OH2           -19.8091775862        2.1730038806       12.5167506252  SOLV      6123            0.0000000000
     18482      6134  TIP3      H1            -19.2632840956        2.0926998174       11.7112923911  SOLV      6123            0.0000000000
     18483      6134  TIP3      H2            -19.3718562102        2.8846330509       12.9962266136  SOLV      6123            0.0000000000
     18484      6135  TIP3      OH2            -0.3774418319        2.5108929501       14.1006674158  SOLV      6124            0.0000000000
     18485      6135  TIP3      H1             -1.2333117744        2.9657418823       14.2400358022  SOLV      6124            0.0000000000
     18486      6135  TIP3      H2             -0.6919047698        1.7676852854       13.5443046272  SOLV      6124            0.0000000000
     18487      6136  TIP3      OH2           -19.9231651646       -2.8188588869        7.6469374194  SOLV      6125            0.0000000000
     18488      6136  TIP3      H1            -20.8543233590       -2.8849184815        7.9119598130  SOLV      6125            0.0000000000
     18489      6136  TIP3      H2            -19.9712412548       -2.2412681152        6.8566539885  SOLV      6125            0.0000000000
     18490      6137  TIP3      OH2            -8.3193981345       14.2616041544        2.6678469490  SOLV      6126            0.0000000000
     18491      6137  TIP3      H1             -7.8270048986       14.1379126378        1.8284849684  SOLV      6126            0.0000000000
     18492      6137  TIP3      H2             -7.7573627234       14.9012991598        3.1291260751  SOLV      6126            0.0000000000
     18493      6138  TIP3      OH2           -17.6901298352       -1.9823408388       15.7007337138  SOLV      6127            0.0000000000
     18494      6138  TIP3      H1            -18.2270259325       -2.0481829633       16.5108599024  SOLV      6127            0.0000000000
     18495      6138  TIP3      H2            -18.3519726613       -1.6192479937       15.0814731987  SOLV      6127            0.0000000000
     18496      6139  TIP3      OH2           -17.3420706731       12.3496905897       16.4817028919  SOLV      6128            0.0000000000
     18497      6139  TIP3      H1            -18.2553096465       12.0431876767       16.3314476213  SOLV      6128            0.0000000000
     18498      6139  TIP3      H2            -17.1498277624       11.9807835308       17.3529773251  SOLV      6128            0.0000000000
     18499      6140  TIP3      OH2           -15.5082731891       12.6492883617       11.9755606336  SOLV      6129            0.0000000000
     18500      6140  TIP3      H1            -15.9736741397       13.4157501067       11.5798180444  SOLV      6129            0.0000000000
     18501      6140  TIP3      H2            -14.6450145530       12.7681342051       11.5290005918  SOLV      6129            0.0000000000
     18502      6141  TIP3      OH2           -11.1362756121       15.0461457401       13.3561951317  SOLV      6130            0.0000000000
     18503      6141  TIP3      H1            -10.7070257041       15.0331049036       14.2385465152  SOLV      6130            0.0000000000
     18504      6141  TIP3      H2            -10.4813136701       15.5670055512       12.8436748638  SOLV      6130            0.0000000000
     18505      6142  TIP3      OH2            -9.3387165180       16.6009186557       11.9840140513  SOLV      6131            0.0000000000
     18506      6142  TIP3      H1             -8.6544160214       16.0896202617       11.5287881388  SOLV      6131            0.0000000000
     18507      6142  TIP3      H2             -8.7895238119       17.1551672763       12.5813673124  SOLV      6131            0.0000000000
     18508      6143  TIP3      OH2            -1.3530565497        0.1520461714       12.9490561134  SOLV      6132            0.0000000000
     18509      6143  TIP3      H1             -2.2568295170        0.0067676422       12.6089810382  SOLV      6132            0.0000000000
     18510      6143  TIP3      H2             -0.9916419364       -0.7614503266       12.8641262948  SOLV      6132            0.0000000000
     18511      6144  TIP3      OH2           -18.7874723881       15.1554474412       12.2340330658  SOLV      6133            0.0000000000
     18512      6144  TIP3      H1            -19.6940547596       15.4706605278       12.0175254942  SOLV      6133            0.0000000000
     18513      6144  TIP3      H2            -18.6241153543       15.6541371130       13.0461645189  SOLV      6133            0.0000000000
     18514      6145  TIP3      OH2           -16.4119739871       14.9736321751       10.8231413680  SOLV      6134            0.0000000000
     18515      6145  TIP3      H1            -17.2956262429       15.0815287152       11.2399961612  SOLV      6134            0.0000000000
     18516      6145  TIP3      H2            -16.5883768579       15.2815048213        9.9117680901  SOLV      6134            0.0000000000
     18517      6146  TIP3      OH2           -12.1662698272       15.2158186990        8.8056023694  SOLV      6135            0.0000000000
     18518      6146  TIP3      H1            -12.8524233828       15.3878998466        8.1354189431  SOLV      6135            0.0000000000
     18519      6146  TIP3      H2            -12.0550416939       16.1024561116        9.2070004755  SOLV      6135            0.0000000000
     18520      6147  TIP3      OH2            -9.4628883294       14.6241464595        9.3470194664  SOLV      6136            0.0000000000
     18521      6147  TIP3      H1            -10.3991509548       14.7967355652        9.1264266747  SOLV      6136            0.0000000000
     18522      6147  TIP3      H2             -9.0104344869       15.3248138712        8.8505565871  SOLV      6136            0.0000000000
     18523      6148  TIP3      OH2            -7.4125262121       16.5264055309        8.4261536825  SOLV      6137            0.0000000000
     18524      6148  TIP3      H1             -7.5512466619       17.3640577102        7.9366517131  SOLV      6137            0.0000000000
     18525      6148  TIP3      H2             -7.1372857823       15.9186502848        7.7028892335  SOLV      6137            0.0000000000
     18526      6149  TIP3      OH2           -19.6851630158       13.0781880681        9.6634727810  SOLV      6138            0.0000000000
     18527      6149  TIP3      H1            -19.4073561627       12.8036656935       10.5629541503  SOLV      6138            0.0000000000
     18528      6149  TIP3      H2            -18.9573308243       12.6622791712        9.1472292638  SOLV      6138            0.0000000000
     18529      6150  TIP3      OH2           -17.7072583323       11.8363028375        8.2741503657  SOLV      6139            0.0000000000
     18530      6150  TIP3      H1            -17.5533770424       10.9925334916        8.7610439304  SOLV      6139            0.0000000000
     18531      6150  TIP3      H2            -16.7960075023       12.1974385695        8.2349796167  SOLV      6139            0.0000000000
     18532      6151  TIP3      OH2           -15.0382347790       12.7532701056        8.3358936343  SOLV      6140            0.0000000000
     18533      6151  TIP3      H1            -14.7151760218       11.8425462978        8.2180617086  SOLV      6140            0.0000000000
     18534      6151  TIP3      H2            -14.5467422835       12.9940933367        9.1455290376  SOLV      6140            0.0000000000
     18535      6152  TIP3      OH2            -9.1866226493       -0.5923113174        9.3242674969  SOLV      6141            0.0000000000
     18536      6152  TIP3      H1             -9.6975933772       -1.2880354161        9.7749661230  SOLV      6141            0.0000000000
     18537      6152  TIP3      H2             -8.6714948726       -1.0910702937        8.6710619036  SOLV      6141            0.0000000000
     18538      6153  TIP3      OH2            -4.1033130509       -1.8140139687        8.2996422658  SOLV      6142            0.0000000000
     18539      6153  TIP3      H1             -3.6957626768       -1.3644466590        7.5230078614  SOLV      6142            0.0000000000
     18540      6153  TIP3      H2             -5.0580376035       -1.6864101494        8.1325846459  SOLV      6142            0.0000000000
     18541      6154  TIP3      OH2            -2.9766146042       -0.9809078523        5.9791103717  SOLV      6143            0.0000000000
     18542      6154  TIP3      H1             -2.3888074187       -1.3740568537        5.3171454439  SOLV      6143            0.0000000000
     18543      6154  TIP3      H2             -2.8936321667       -0.0378691084        5.7213695035  SOLV      6143            0.0000000000
     18544      6155  TIP3      OH2           -16.9102674665       -3.5811058621        9.5725553836  SOLV      6144            0.0000000000
     18545      6155  TIP3      H1            -17.8213106082       -3.9234365883        9.4737384002  SOLV      6144            0.0000000000
     18546      6155  TIP3      H2            -16.3889442430       -4.3210905292        9.2158398033  SOLV      6144            0.0000000000
     18547      6156  TIP3      OH2           -19.0069450078       -4.8693079096        5.7713529533  SOLV      6145            0.0000000000
     18548      6156  TIP3      H1            -18.6026733333       -4.3004277358        5.0938603810  SOLV      6145            0.0000000000
     18549      6156  TIP3      H2            -19.1796077249       -4.2252683118        6.4862737434  SOLV      6145            0.0000000000
     18550      6157  TIP3      OH2            -6.8672590560       -1.8493944543        7.8978956432  SOLV      6146            0.0000000000
     18551      6157  TIP3      H1             -6.9084279098       -2.3010614574        7.0457487824  SOLV      6146            0.0000000000
     18552      6157  TIP3      H2             -7.0604221544       -2.5865968292        8.5205828462  SOLV      6146            0.0000000000
     18553      6158  TIP3      OH2           -21.7997755471       10.9128575370        3.5708458169  SOLV      6147            0.0000000000
     18554      6158  TIP3      H1            -22.6590200850       10.5824393584        3.2492998738  SOLV      6147            0.0000000000
     18555      6158  TIP3      H2            -21.8570637368       11.8324520486        3.2462173549  SOLV      6147            0.0000000000
     18556      6159  TIP3      OH2           -17.6012181555       -3.1827265042        3.5028450868  SOLV      6148            0.0000000000
     18557      6159  TIP3      H1            -17.0706367687       -3.7908538621        2.9590237750  SOLV      6148            0.0000000000
     18558      6159  TIP3      H2            -16.9177256794       -2.8223870212        4.1083754884  SOLV      6148            0.0000000000
     18559      6160  TIP3      OH2           -14.0456246528       12.6639015230       -0.5976534433  SOLV      6149            0.0000000000
     18560      6160  TIP3      H1            -13.1665751000       12.8962026935       -0.9649807799  SOLV      6149            0.0000000000
     18561      6160  TIP3      H2            -14.2709154133       11.9252428697       -1.2090586455  SOLV      6149            0.0000000000
     18562      6161  TIP3      OH2            -6.8596799346       13.9048430234        0.3509220348  SOLV      6150            0.0000000000
     18563      6161  TIP3      H1             -6.9234463399       12.9239922854        0.2527786253  SOLV      6150            0.0000000000
     18564      6161  TIP3      H2             -7.3208238447       14.1951334089       -0.4625161060  SOLV      6150            0.0000000000
     18565      6162  TIP3      OH2           -14.7529398893       -0.7636503492       18.2204645069  SOLV      6151            0.0000000000
     18566      6162  TIP3      H1            -15.1538686113       -1.4548888670       18.7760374178  SOLV      6151            0.0000000000
     18567      6162  TIP3      H2            -13.8211875451       -0.7979941494       18.5255926158  SOLV      6151            0.0000000000
     18568      6163  TIP3      OH2           -12.2317358487       -0.7948974529       19.4183298088  SOLV      6152            0.0000000000
     18569      6163  TIP3      H1            -11.4037153157       -1.0686176197       18.9892198990  SOLV      6152            0.0000000000
     18570      6163  TIP3      H2            -12.3690600754       -1.5177960355       20.0653737683  SOLV      6152            0.0000000000
     18571      6164  TIP3      OH2           -21.0172663856       11.0384992262       -0.0865092394  SOLV      6153            0.0000000000
     18572      6164  TIP3      H1            -20.9428292130       11.2719135205        0.8478955037  SOLV      6153            0.0000000000
     18573      6164  TIP3      H2            -20.1493989036       10.6004531989       -0.2592918417  SOLV      6153            0.0000000000
     18574      6165  TIP3      OH2            -3.9517695724       -0.1588138894       17.2557400498  SOLV      6154            0.0000000000
     18575      6165  TIP3      H1             -3.7904388972       -0.4714322633       18.1720778008  SOLV      6154            0.0000000000
     18576      6165  TIP3      H2             -3.0574636505       -0.2330626182       16.8613441116  SOLV      6154            0.0000000000
     18577      6166  TIP3      OH2            -4.6431743028       15.3218346226       12.2024046801  SOLV      6155            0.0000000000
     18578      6166  TIP3      H1             -5.4153999376       15.0254092494       11.6765419211  SOLV      6155            0.0000000000
     18579      6166  TIP3      H2             -4.8348995193       16.2791028113       12.2676013580  SOLV      6155            0.0000000000
     18580      6167  TIP3      OH2             8.0801216914        9.1310705705       -0.1937933803  SOLV      6156            0.0000000000
     18581      6167  TIP3      H1              7.6966315519        9.9941613839       -0.4602615441  SOLV      6156            0.0000000000
     18582      6167  TIP3      H2              7.3649495112        8.5326210271       -0.4734227010  SOLV      6156            0.0000000000
     18583      6168  TIP3      OH2             8.0868312288        9.1106704199        3.7066133757  SOLV      6157            0.0000000000
     18584      6168  TIP3      H1              8.4103401049        8.8044011479        4.5726573195  SOLV      6157            0.0000000000
     18585      6168  TIP3      H2              7.7377975355        8.2871328982        3.3281794811  SOLV      6157            0.0000000000
     18586      6169  TIP3      OH2             1.0266939701        7.9927028750        7.3225346845  SOLV      6158            0.0000000000
     18587      6169  TIP3      H1              1.3183584818        7.2788135500        7.9198854009  SOLV      6158            0.0000000000
     18588      6169  TIP3      H2              1.8407291913        8.5072979410        7.2361595595  SOLV      6158            0.0000000000
     18589      6170  TIP3      OH2            10.5599582586       12.1069184616        0.4973248448  SOLV      6159            0.0000000000
     18590      6170  TIP3      H1             10.2823430463       11.4348472923        1.1330031113  SOLV      6159            0.0000000000
     18591      6170  TIP3      H2             10.8373381748       12.8410884094        1.0698957081  SOLV      6159            0.0000000000
     18592      6171  TIP3      OH2             0.7923068281       12.1599035647        4.5520088365  SOLV      6160            0.0000000000
     18593      6171  TIP3      H1              0.7082091988       11.1799046339        4.5669543598  SOLV      6160            0.0000000000
     18594      6171  TIP3      H2              1.7576750851       12.2423119206        4.4457552823  SOLV      6160            0.0000000000
     18595      6172  TIP3      OH2            -1.9603984977        4.2973227731        2.6893233554  SOLV      6161            0.0000000000
     18596      6172  TIP3      H1             -2.6311477389        4.9992388762        2.6830165964  SOLV      6161            0.0000000000
     18597      6172  TIP3      H2             -2.4041123200        3.6900207250        2.0582650933  SOLV      6161            0.0000000000
     18598      6173  TIP3      OH2            -1.6156332768        7.0975102196        4.1984267616  SOLV      6162            0.0000000000
     18599      6173  TIP3      H1             -1.1375429887        6.2773148709        4.4550872263  SOLV      6162            0.0000000000
     18600      6173  TIP3      H2             -1.1857842714        7.3230934857        3.3638930352  SOLV      6162            0.0000000000
     18601      6174  TIP3      OH2             7.0610195181       16.7315091403        0.6961242164  SOLV      6163            0.0000000000
     18602      6174  TIP3      H1              7.4375213321       16.0255027373        0.1292249219  SOLV      6163            0.0000000000
     18603      6174  TIP3      H2              6.9084014491       16.2520899754        1.5193817280  SOLV      6163            0.0000000000
     18604      6175  TIP3      OH2             6.0223254489       11.3315243798        4.1615724794  SOLV      6164            0.0000000000
     18605      6175  TIP3      H1              6.4429746659       10.5652103456        3.7351980909  SOLV      6164            0.0000000000
     18606      6175  TIP3      H2              6.8384496741       11.8154956405        4.4129939894  SOLV      6164            0.0000000000
     18607      6176  TIP3      OH2            16.2266423700        4.5194905706        4.1650573706  SOLV      6165            0.0000000000
     18608      6176  TIP3      H1             16.5161151668        5.3547093437        4.5848986487  SOLV      6165            0.0000000000
     18609      6176  TIP3      H2             16.4133729771        4.7044340855        3.2289272916  SOLV      6165            0.0000000000
     18610      6177  TIP3      OH2            10.2139679319        6.3222380972        4.4529048174  SOLV      6166            0.0000000000
     18611      6177  TIP3      H1             10.5826389223        5.4329337961        4.6113366478  SOLV      6166            0.0000000000
     18612      6177  TIP3      H2              9.7872153556        6.1896220679        3.5799100405  SOLV      6166            0.0000000000
     18613      6178  TIP3      OH2             3.0623475623        2.8703430151        4.0243234669  SOLV      6167            0.0000000000
     18614      6178  TIP3      H1              3.5714682387        3.2800483153        3.3035638239  SOLV      6167            0.0000000000
     18615      6178  TIP3      H2              3.2358969750        1.9318538000        3.8746606877  SOLV      6167            0.0000000000
     18616      6179  TIP3      OH2            10.4685689604        3.9212427180        0.6702756654  SOLV      6168            0.0000000000
     18617      6179  TIP3      H1             11.3889357613        3.7501095285        0.9506514880  SOLV      6168            0.0000000000
     18618      6179  TIP3      H2             10.4629961030        3.7302750233       -0.2770222616  SOLV      6168            0.0000000000
     18619      6180  TIP3      OH2            -0.2825055759        4.8942696772        5.1337203508  SOLV      6169            0.0000000000
     18620      6180  TIP3      H1              0.5824121570        4.5664202770        5.4411061123  SOLV      6169            0.0000000000
     18621      6180  TIP3      H2             -0.5356575229        4.2586549088        4.4407627295  SOLV      6169            0.0000000000
     18622      6181  TIP3      OH2             4.3528047518        6.8413518810        3.1058466179  SOLV      6170            0.0000000000
     18623      6181  TIP3      H1              5.3007563649        6.8830390935        3.3621114948  SOLV      6170            0.0000000000
     18624      6181  TIP3      H2              4.3571158131        5.9801357430        2.6705915639  SOLV      6170            0.0000000000
     18625      6182  TIP3      OH2            16.9460329214        6.6351133124        5.8292531738  SOLV      6171            0.0000000000
     18626      6182  TIP3      H1             16.0903085046        7.0715894183        5.6285284892  SOLV      6171            0.0000000000
     18627      6182  TIP3      H2             17.1055374636        6.9667272166        6.7274663834  SOLV      6171            0.0000000000
     18628      6183  TIP3      OH2             3.5244993211        2.7807424589        8.4876930204  SOLV      6172            0.0000000000
     18629      6183  TIP3      H1              2.9246977689        3.1488830943        7.8104707113  SOLV      6172            0.0000000000
     18630      6183  TIP3      H2              2.9848350937        2.9341513687        9.2909430609  SOLV      6172            0.0000000000
     18631      6184  TIP3      OH2             6.8839636268       11.2635561660       -1.4713093601  SOLV      6173            0.0000000000
     18632      6184  TIP3      H1              6.5192758653       11.1492619359       -2.3616612913  SOLV      6173            0.0000000000
     18633      6184  TIP3      H2              6.4362026531       12.0873296334       -1.1859663769  SOLV      6173            0.0000000000
     18634      6185  TIP3      OH2             4.5817761984       10.5338977515        6.3640179203  SOLV      6174            0.0000000000
     18635      6185  TIP3      H1              3.9923544656       11.2339313654        6.7215764185  SOLV      6174            0.0000000000
     18636      6185  TIP3      H2              5.0043137389       10.9931124872        5.6068260549  SOLV      6174            0.0000000000
     18637      6186  TIP3      OH2            12.8307242758        3.9292501320        2.0220113899  SOLV      6175            0.0000000000
     18638      6186  TIP3      H1             12.4116075978        3.4730185967        2.7645296573  SOLV      6175            0.0000000000
     18639      6186  TIP3      H2             13.1502613736        4.7530748420        2.4459681957  SOLV      6175            0.0000000000
     18640      6187  TIP3      OH2             2.1609501873        3.9514859554        6.3649287626  SOLV      6176            0.0000000000
     18641      6187  TIP3      H1              2.7860854165        4.6776928357        6.5829546412  SOLV      6176            0.0000000000
     18642      6187  TIP3      H2              2.5620771020        3.5980809737        5.5374554826  SOLV      6176            0.0000000000
     18643      6188  TIP3      OH2             2.8922006208       12.5092358341        7.3948500784  SOLV      6177            0.0000000000
     18644      6188  TIP3      H1              2.6288522527       13.3740985427        7.0209649059  SOLV      6177            0.0000000000
     18645      6188  TIP3      H2              2.0891891297       12.3173958940        7.9259369379  SOLV      6177            0.0000000000
     18646      6189  TIP3      OH2            -3.2602520828        9.3894795928       -0.2777920637  SOLV      6178            0.0000000000
     18647      6189  TIP3      H1             -3.6559210190        9.6575978494       -1.1289285788  SOLV      6178            0.0000000000
     18648      6189  TIP3      H2             -2.9222945154       10.2414507974        0.0648726827  SOLV      6178            0.0000000000
     18649      6190  TIP3      OH2            11.1878940786       14.5636939588        2.1483522187  SOLV      6179            0.0000000000
     18650      6190  TIP3      H1             10.2910541149       14.4626652097        2.5434787971  SOLV      6179            0.0000000000
     18651      6190  TIP3      H2             11.0857735416       15.4158869373        1.6805973901  SOLV      6179            0.0000000000
     18652      6191  TIP3      OH2            14.1143137404        3.4997754600        5.7980561210  SOLV      6180            0.0000000000
     18653      6191  TIP3      H1             13.2336111270        3.7169008744        5.4449287435  SOLV      6180            0.0000000000
     18654      6191  TIP3      H2             14.7084092179        3.8304138189        5.0935706986  SOLV      6180            0.0000000000
     18655      6192  TIP3      OH2             7.0384247034       -0.0796230797        5.6288431912  SOLV      6181            0.0000000000
     18656      6192  TIP3      H1              6.8181410585       -1.0229558991        5.7434442517  SOLV      6181            0.0000000000
     18657      6192  TIP3      H2              6.2726040371        0.3280256792        6.0899231885  SOLV      6181            0.0000000000
     18658      6193  TIP3      OH2             8.1480850149       14.9863545552       -1.1678999616  SOLV      6182            0.0000000000
     18659      6193  TIP3      H1              8.6371366190       14.1443866337       -1.3316080986  SOLV      6182            0.0000000000
     18660      6193  TIP3      H2              8.8021469479       15.6187685938       -1.5460854003  SOLV      6182            0.0000000000
     18661      6194  TIP3      OH2             9.6006143416       12.8340721509       -1.9887861405  SOLV      6183            0.0000000000
     18662      6194  TIP3      H1              9.3140980843       12.0236309928       -2.4313323909  SOLV      6183            0.0000000000
     18663      6194  TIP3      H2             10.0060654908       12.4803087411       -1.1664346789  SOLV      6183            0.0000000000
     18664      6195  TIP3      OH2            13.4375544947       13.6179762238        5.5820556643  SOLV      6184            0.0000000000
     18665      6195  TIP3      H1             13.2996447848       12.8506438627        4.9849446564  SOLV      6184            0.0000000000
     18666      6195  TIP3      H2             13.2475076495       14.3710963759        4.9835817108  SOLV      6184            0.0000000000
     18667      6196  TIP3      OH2             6.3541997193        7.6115304305       -1.8243299030  SOLV      6185            0.0000000000
     18668      6196  TIP3      H1              5.5774673819        8.1571156405       -2.0592356728  SOLV      6185            0.0000000000
     18669      6196  TIP3      H2              6.8088010684        7.5215205804       -2.6810698370  SOLV      6185            0.0000000000
     18670      6197  TIP3      OH2             5.9956745135        5.4333658621       -4.7756239795  SOLV      6186            0.0000000000
     18671      6197  TIP3      H1              6.6303319083        5.9582785025       -4.2540418544  SOLV      6186            0.0000000000
     18672      6197  TIP3      H2              6.6119518510        4.8162795381       -5.2234855320  SOLV      6186            0.0000000000
     18673      6198  TIP3      OH2            15.3891428814       10.0375030787        4.0590191338  SOLV      6187            0.0000000000
     18674      6198  TIP3      H1             14.5406919081       10.5341402669        4.0871791344  SOLV      6187            0.0000000000
     18675      6198  TIP3      H2             15.7007250184       10.2908226144        3.1618959450  SOLV      6187            0.0000000000
     18676      6199  TIP3      OH2             9.8506937791        8.4289202781       -2.1614680199  SOLV      6188            0.0000000000
     18677      6199  TIP3      H1              9.2782927406        8.6464018141       -1.3880459066  SOLV      6188            0.0000000000
     18678      6199  TIP3      H2             10.6811271706        8.1924785798       -1.7094334006  SOLV      6188            0.0000000000
     18679      6200  TIP3      OH2            12.1807539553        8.7701145408        7.0459225141  SOLV      6189            0.0000000000
     18680      6200  TIP3      H1             12.1373539029        9.6160968198        7.5281035141  SOLV      6189            0.0000000000
     18681      6200  TIP3      H2             11.3127295041        8.7815044395        6.5907150851  SOLV      6189            0.0000000000
     18682      6201  TIP3      OH2             2.2327471190        8.4806692440        2.1649590623  SOLV      6190            0.0000000000
     18683      6201  TIP3      H1              1.6502574265        7.9598349984        1.5658350124  SOLV      6190            0.0000000000
     18684      6201  TIP3      H2              2.9466596390        7.8472808067        2.3784360251  SOLV      6190            0.0000000000
     18685      6202  TIP3      OH2             3.4512327109       12.5030213772        3.5152839414  SOLV      6191            0.0000000000
     18686      6202  TIP3      H1              3.2412212948       12.1949004091        2.6183726651  SOLV      6191            0.0000000000
     18687      6202  TIP3      H2              4.3319357449       12.1040481875        3.6711326378  SOLV      6191            0.0000000000
     18688      6203  TIP3      OH2             3.5424932556        8.0822624587        5.6202785805  SOLV      6192            0.0000000000
     18689      6203  TIP3      H1              3.8275574641        7.8596917715        4.7143003015  SOLV      6192            0.0000000000
     18690      6203  TIP3      H2              3.9500602414        8.9621871049        5.7690158478  SOLV      6192            0.0000000000
     18691      6204  TIP3      OH2             8.7879194354       14.4797703299        3.3733521312  SOLV      6193            0.0000000000
     18692      6204  TIP3      H1              8.6554750453       15.2745819471        3.9188179679  SOLV      6193            0.0000000000
     18693      6204  TIP3      H2              8.6085640744       13.7470508396        3.9962529264  SOLV      6193            0.0000000000
     18694      6205  TIP3      OH2             4.9250040721       13.6542487394        8.8544215393  SOLV      6194            0.0000000000
     18695      6205  TIP3      H1              4.2932248747       14.2612077649        9.2979800714  SOLV      6194            0.0000000000
     18696      6205  TIP3      H2              4.2981816233       13.1185084655        8.3236573321  SOLV      6194            0.0000000000
     18697      6206  TIP3      OH2             8.1863853274        6.9739351334       -3.8555655511  SOLV      6195            0.0000000000
     18698      6206  TIP3      H1              8.7962995656        7.5570491033       -3.3527176452  SOLV      6195            0.0000000000
     18699      6206  TIP3      H2              8.4546869507        7.1901123692       -4.7838615276  SOLV      6195            0.0000000000
     18700      6207  TIP3      OH2             2.4769831325        9.1637236864        9.9351016715  SOLV      6196            0.0000000000
     18701      6207  TIP3      H1              2.5090471351       10.0687314039       10.3042677807  SOLV      6196            0.0000000000
     18702      6207  TIP3      H2              1.5229492963        8.9669094331       10.0398323385  SOLV      6196            0.0000000000
     18703      6208  TIP3      OH2             5.6898891231       13.7564427124       -1.0769484253  SOLV      6197            0.0000000000
     18704      6208  TIP3      H1              6.5240658039       14.2655607403       -1.0523881457  SOLV      6197            0.0000000000
     18705      6208  TIP3      H2              5.1039165220       14.3384969588       -1.5774868213  SOLV      6197            0.0000000000
     18706      6209  TIP3      OH2             2.8477473021       15.2981871385        9.7151660560  SOLV      6198            0.0000000000
     18707      6209  TIP3      H1              2.5036403790       15.3532289845        8.8026987874  SOLV      6198            0.0000000000
     18708      6209  TIP3      H2              2.0363335175       15.0823526335       10.2278909663  SOLV      6198            0.0000000000
     18709      6210  TIP3      OH2             0.4996229605        7.0921950883        0.5091148572  SOLV      6199            0.0000000000
     18710      6210  TIP3      H1             -0.0378211031        7.5091789980       -0.1973049910  SOLV      6199            0.0000000000
     18711      6210  TIP3      H2              0.1168509509        6.2081650276        0.5276971676  SOLV      6199            0.0000000000
     18712      6211  TIP3      OH2            11.4108799978       13.0396388898       -7.8653954089  SOLV      6200            0.0000000000
     18713      6211  TIP3      H1             11.4988761525       14.0024243514       -8.0329702515  SOLV      6200            0.0000000000
     18714      6211  TIP3      H2             12.3380743836       12.7410095104       -7.9851330801  SOLV      6200            0.0000000000
     18715      6212  TIP3      OH2            -1.3694140399       10.6565660160        9.1742009049  SOLV      6201            0.0000000000
     18716      6212  TIP3      H1             -2.0584609934       10.4754972721        8.4994261554  SOLV      6201            0.0000000000
     18717      6212  TIP3      H2             -0.9987410972        9.7685249016        9.3465090003  SOLV      6201            0.0000000000
     18718      6213  TIP3      OH2            -2.8202773651       12.5865116781        5.4709123565  SOLV      6202            0.0000000000
     18719      6213  TIP3      H1             -1.8604583478       12.5130710960        5.3826275766  SOLV      6202            0.0000000000
     18720      6213  TIP3      H2             -2.9041925575       13.3630955315        6.0447848684  SOLV      6202            0.0000000000
     18721      6214  TIP3      OH2            15.8169941283       17.1351633176        6.0938729689  SOLV      6203            0.0000000000
     18722      6214  TIP3      H1             15.8027145490       16.1694962495        6.2336925398  SOLV      6203            0.0000000000
     18723      6214  TIP3      H2             14.9809279833       17.3871670988        6.5468638710  SOLV      6203            0.0000000000
     18724      6215  TIP3      OH2             6.8756561500       14.9271135862        7.4250029622  SOLV      6204            0.0000000000
     18725      6215  TIP3      H1              6.8286114772       15.8568544789        7.7357626439  SOLV      6204            0.0000000000
     18726      6215  TIP3      H2              6.1540025064       14.5202141790        7.9551417032  SOLV      6204            0.0000000000
     18727      6216  TIP3      OH2             4.5446765989       16.2091528197       -3.0669892357  SOLV      6205            0.0000000000
     18728      6216  TIP3      H1              4.0611804877       16.0224237633       -3.8920140783  SOLV      6205            0.0000000000
     18729      6216  TIP3      H2              4.1779068168       17.0714537346       -2.7967844900  SOLV      6205            0.0000000000
     18730      6217  TIP3      OH2            -1.1237466102       14.7039294219        0.7938428790  SOLV      6206            0.0000000000
     18731      6217  TIP3      H1             -0.6690277498       14.6146231749        1.6602372473  SOLV      6206            0.0000000000
     18732      6217  TIP3      H2             -1.5908665217       13.8503190420        0.7392698983  SOLV      6206            0.0000000000
     18733      6218  TIP3      OH2             6.5079934440       15.2618207651       -6.6999288355  SOLV      6207            0.0000000000
     18734      6218  TIP3      H1              7.0942454736       14.5577684878       -7.0553942035  SOLV      6207            0.0000000000
     18735      6218  TIP3      H2              6.8560591571       15.3647376059       -5.7895431242  SOLV      6207            0.0000000000
     18736      6219  TIP3      OH2             7.0383391887       15.7425774795       -4.0122601054  SOLV      6208            0.0000000000
     18737      6219  TIP3      H1              6.1461512450       15.8455086925       -3.6106396468  SOLV      6208            0.0000000000
     18738      6219  TIP3      H2              7.5232163991       15.3309784482       -3.2792790521  SOLV      6208            0.0000000000
     18739      6220  TIP3      OH2            14.6868919132        8.3719828621        8.8235047764  SOLV      6209            0.0000000000
     18740      6220  TIP3      H1             13.8507465221        8.4773520574        8.3443930819  SOLV      6209            0.0000000000
     18741      6220  TIP3      H2             14.8510888147        7.4131988659        8.7178007599  SOLV      6209            0.0000000000
     18742      6221  TIP3      OH2             0.6687605290       12.4823172416        9.0041807147  SOLV      6210            0.0000000000
     18743      6221  TIP3      H1              1.1546396445       12.3084172133        9.8340887986  SOLV      6210            0.0000000000
     18744      6221  TIP3      H2             -0.0784561225       11.8508595657        9.0741885755  SOLV      6210            0.0000000000
     18745      6222  TIP3      OH2             4.7074646672        0.7641195799        6.9430646967  SOLV      6211            0.0000000000
     18746      6222  TIP3      H1              3.8194885206        0.4215907134        6.7000667471  SOLV      6211            0.0000000000
     18747      6222  TIP3      H2              4.4222904690        1.5297204870        7.4823219662  SOLV      6211            0.0000000000
     18748      6223  TIP3      OH2            10.0299663194        1.8546112625        8.8556879839  SOLV      6212            0.0000000000
     18749      6223  TIP3      H1             10.7111809833        1.5725700835        9.4983433171  SOLV      6212            0.0000000000
     18750      6223  TIP3      H2              9.1922873752        1.6687236347        9.3270527311  SOLV      6212            0.0000000000
     18751      6224  TIP3      OH2            12.3927300951        6.1595503366        8.0619763790  SOLV      6213            0.0000000000
     18752      6224  TIP3      H1             11.8498874180        6.1391746050        8.8826954916  SOLV      6213            0.0000000000
     18753      6224  TIP3      H2             12.1477278806        7.0181884664        7.6671229395  SOLV      6213            0.0000000000
     18754      6225  TIP3      OH2             8.9825930834        7.4441094149       -6.3822273119  SOLV      6214            0.0000000000
     18755      6225  TIP3      H1              8.6322986173        7.1800737755       -7.2532476334  SOLV      6214            0.0000000000
     18756      6225  TIP3      H2              9.8556087914        7.8047947146       -6.6371844102  SOLV      6214            0.0000000000
     18757      6226  TIP3      OH2             4.0075259163        5.8817276097        7.1134697366  SOLV      6215            0.0000000000
     18758      6226  TIP3      H1              3.4862906073        6.0841593110        7.9190249885  SOLV      6215            0.0000000000
     18759      6226  TIP3      H2              3.8530016229        6.6958993263        6.5816721586  SOLV      6215            0.0000000000
     18760      6227  TIP3      OH2             7.9514329964        5.8741907750       -0.3652499805  SOLV      6216            0.0000000000
     18761      6227  TIP3      H1              7.3363261596        6.4020475532       -0.9088763183  SOLV      6216            0.0000000000
     18762      6227  TIP3      H2              8.3179539559        5.2504509563       -1.0263469083  SOLV      6216            0.0000000000
     18763      6228  TIP3      OH2             9.4852495141        8.3215646361       10.3534623571  SOLV      6217            0.0000000000
     18764      6228  TIP3      H1              9.2633655971        7.5970604890       10.9784311426  SOLV      6217            0.0000000000
     18765      6228  TIP3      H2             10.4252990076        8.4595772267       10.5719085015  SOLV      6217            0.0000000000
     18766      6229  TIP3      OH2             9.2488476799        5.9302010145        1.9660168463  SOLV      6218            0.0000000000
     18767      6229  TIP3      H1              8.6815452975        6.1215589670        1.1775938955  SOLV      6218            0.0000000000
     18768      6229  TIP3      H2              9.6383286193        5.0942052615        1.6121896657  SOLV      6218            0.0000000000
     18769      6230  TIP3      OH2             2.2027856206        6.1483140005        9.1659784433  SOLV      6219            0.0000000000
     18770      6230  TIP3      H1              2.4321177824        6.7933442508        9.8501122368  SOLV      6219            0.0000000000
     18771      6230  TIP3      H2              2.0643920889        5.3314132495        9.6847175395  SOLV      6219            0.0000000000
     18772      6231  TIP3      OH2             2.3579148073        0.7173206244       -3.5352347701  SOLV      6220            0.0000000000
     18773      6231  TIP3      H1              1.8907901649        0.4014238259       -2.7420680606  SOLV      6220            0.0000000000
     18774      6231  TIP3      H2              1.7367699030        1.3968959422       -3.8647177677  SOLV      6220            0.0000000000
     18775      6232  TIP3      OH2            -1.9236497051        1.3503437982        5.0049309483  SOLV      6221            0.0000000000
     18776      6232  TIP3      H1             -1.1844224727        1.6504578754        5.5709517490  SOLV      6221            0.0000000000
     18777      6232  TIP3      H2             -1.6588259677        1.6245841754        4.1185323180  SOLV      6221            0.0000000000
     18778      6233  TIP3      OH2             9.4481177440        8.2827966864        6.1019882058  SOLV      6222            0.0000000000
     18779      6233  TIP3      H1              9.7712174165        7.5756219344        5.4937511690  SOLV      6222            0.0000000000
     18780      6233  TIP3      H2              9.1016803852        7.7283074139        6.8338058793  SOLV      6222            0.0000000000
     18781      6234  TIP3      OH2             5.8043799693        3.2339536590        3.2621421166  SOLV      6223            0.0000000000
     18782      6234  TIP3      H1              5.5298940741        2.9414616919        4.1362464444  SOLV      6223            0.0000000000
     18783      6234  TIP3      H2              6.7300611327        2.9401149169        3.2195019404  SOLV      6223            0.0000000000
     18784      6235  TIP3      OH2            11.0251432524        3.6983315355        4.8755021631  SOLV      6224            0.0000000000
     18785      6235  TIP3      H1             10.7001770472        3.8579112878        5.7889971946  SOLV      6224            0.0000000000
     18786      6235  TIP3      H2             10.3333833097        3.0916493200        4.5496097509  SOLV      6224            0.0000000000
     18787      6236  TIP3      OH2            12.7768018943       20.5940777622        7.0785894075  SOLV      6225            0.0000000000
     18788      6236  TIP3      H1             12.7466102387       20.8395358775        6.1367141197  SOLV      6225            0.0000000000
     18789      6236  TIP3      H2             13.5831994524       21.0595237146        7.3773858026  SOLV      6225            0.0000000000
     18790      6237  TIP3      OH2             2.2996159341       11.6993670284       11.2435147688  SOLV      6226            0.0000000000
     18791      6237  TIP3      H1              3.0947211499       11.9914862782       11.7301593546  SOLV      6226            0.0000000000
     18792      6237  TIP3      H2              1.6482462057       11.6713851031       11.9711495966  SOLV      6226            0.0000000000
     18793      6238  TIP3      OH2             6.9414722246        6.3437237930        3.8398199862  SOLV      6227            0.0000000000
     18794      6238  TIP3      H1              7.5050531873        5.8774511460        3.1996137603  SOLV      6227            0.0000000000
     18795      6238  TIP3      H2              6.9862879661        5.7582108041        4.6160239031  SOLV      6227            0.0000000000
     18796      6239  TIP3      OH2             6.6724880690        5.2020881379        6.7611154569  SOLV      6228            0.0000000000
     18797      6239  TIP3      H1              5.7759251927        5.5818412859        6.8626401605  SOLV      6228            0.0000000000
     18798      6239  TIP3      H2              7.2438564997        5.8632271956        7.1981125485  SOLV      6228            0.0000000000
     18799      6240  TIP3      OH2             4.0343904530        9.1504549520       -2.3673346765  SOLV      6229            0.0000000000
     18800      6240  TIP3      H1              3.3167768494        8.4953033599       -2.5102726113  SOLV      6229            0.0000000000
     18801      6240  TIP3      H2              3.8219483786        9.4644626792       -1.4539524857  SOLV      6229            0.0000000000
     18802      6241  TIP3      OH2            13.0372744964       11.4556158893        3.9099681850  SOLV      6230            0.0000000000
     18803      6241  TIP3      H1             13.2587949676       11.9811307012        3.1132211158  SOLV      6230            0.0000000000
     18804      6241  TIP3      H2             12.1946570968       11.0217519524        3.6451484298  SOLV      6230            0.0000000000
     18805      6242  TIP3      OH2             8.0424986438       12.3009667187        7.6281181828  SOLV      6231            0.0000000000
     18806      6242  TIP3      H1              8.3589946146       12.1433583793        8.5253321935  SOLV      6231            0.0000000000
     18807      6242  TIP3      H2              7.6595452021       13.1938444029        7.6840635869  SOLV      6231            0.0000000000
     18808      6243  TIP3      OH2             9.3365758588        4.7485007172       -2.4554991896  SOLV      6232            0.0000000000
     18809      6243  TIP3      H1             10.2390120127        4.5801454745       -2.7393149910  SOLV      6232            0.0000000000
     18810      6243  TIP3      H2              8.9986751771        5.3747982334       -3.1199747432  SOLV      6232            0.0000000000
     18811      6244  TIP3      OH2             1.0209524097        9.4328927397        4.4508388168  SOLV      6233            0.0000000000
     18812      6244  TIP3      H1              1.3987743471        9.1371862877        3.5964101671  SOLV      6233            0.0000000000
     18813      6244  TIP3      H2              1.3492779828        8.7540455666        5.0561975749  SOLV      6233            0.0000000000
     18814      6245  TIP3      OH2             5.5218371832       10.6149660812       -4.1064545604  SOLV      6234            0.0000000000
     18815      6245  TIP3      H1              5.0284340281       11.4685863544       -4.0874895091  SOLV      6234            0.0000000000
     18816      6245  TIP3      H2              4.9717155210       10.0703743825       -3.5008463571  SOLV      6234            0.0000000000
     18817      6246  TIP3      OH2            -0.1750414054        8.4893598563       10.5438386437  SOLV      6235            0.0000000000
     18818      6246  TIP3      H1             -0.0848212426        8.3211295693       11.5016213342  SOLV      6235            0.0000000000
     18819      6246  TIP3      H2             -0.8985524481        7.8794656592       10.3104188521  SOLV      6235            0.0000000000
     18820      6247  TIP3      OH2             7.0834743055        9.6988424662       10.7433477362  SOLV      6236            0.0000000000
     18821      6247  TIP3      H1              6.4457790508        9.1072638781       10.3103424609  SOLV      6236            0.0000000000
     18822      6247  TIP3      H2              7.9329183333        9.3157076887       10.4360323057  SOLV      6236            0.0000000000
     18823      6248  TIP3      OH2             9.6380955819       14.9059017828        6.6133061915  SOLV      6237            0.0000000000
     18824      6248  TIP3      H1              8.6742085409       14.8802170396        6.7467305032  SOLV      6237            0.0000000000
     18825      6248  TIP3      H2              9.9153505749       15.4314180752        7.3926619157  SOLV      6237            0.0000000000
     18826      6249  TIP3      OH2            15.9401233273       14.2305251075        6.4645831881  SOLV      6238            0.0000000000
     18827      6249  TIP3      H1             14.9634749234       14.1587055198        6.3806911321  SOLV      6238            0.0000000000
     18828      6249  TIP3      H2             16.2052432939       13.9150198208        5.5706750276  SOLV      6238            0.0000000000
     18829      6250  TIP3      OH2            10.8039558733       13.8049597868       -5.2086636479  SOLV      6239            0.0000000000
     18830      6250  TIP3      H1             10.4833706190       13.1094063312       -4.6174855800  SOLV      6239            0.0000000000
     18831      6250  TIP3      H2             10.9012595243       13.3394412475       -6.0592428118  SOLV      6239            0.0000000000
     18832      6251  TIP3      OH2            10.7090641431       10.1000629394        3.0973423003  SOLV      6240            0.0000000000
     18833      6251  TIP3      H1              9.7683080543        9.8715104957        3.2343568702  SOLV      6240            0.0000000000
     18834      6251  TIP3      H2             11.0223602068        9.2881831282        2.6496793234  SOLV      6240            0.0000000000
     18835      6252  TIP3      OH2             2.0333935966       12.4245118536        0.7083736858  SOLV      6241            0.0000000000
     18836      6252  TIP3      H1              1.9698400485       13.2121315251        0.1330189973  SOLV      6241            0.0000000000
     18837      6252  TIP3      H2              1.1082492067       12.1622162573        0.7736090856  SOLV      6241            0.0000000000
     18838      6253  TIP3      OH2            -2.3137831274        5.3828646527       -2.1985189124  SOLV      6242            0.0000000000
     18839      6253  TIP3      H1             -1.9268072254        6.2616773695       -2.0088313735  SOLV      6242            0.0000000000
     18840      6253  TIP3      H2             -3.1083535692        5.3982576434       -1.6201219177  SOLV      6242            0.0000000000
     18841      6254  TIP3      OH2             3.2826218476       10.0139202609        0.0713580323  SOLV      6243            0.0000000000
     18842      6254  TIP3      H1              2.9956069847       10.9257471518        0.2712947928  SOLV      6243            0.0000000000
     18843      6254  TIP3      H2              2.9715112591        9.5340646841        0.8613659247  SOLV      6243            0.0000000000
     18844      6255  TIP3      OH2             4.7124445893       15.8016925458        5.3418295014  SOLV      6244            0.0000000000
     18845      6255  TIP3      H1              5.1365229585       16.5271461954        4.8368532393  SOLV      6244            0.0000000000
     18846      6255  TIP3      H2              5.4801046262       15.4112220294        5.7886594397  SOLV      6244            0.0000000000
     18847      6256  TIP3      OH2             1.1711698740       14.7725241633       -0.8210665541  SOLV      6245            0.0000000000
     18848      6256  TIP3      H1              0.3215789855       14.8734605741       -0.3477691510  SOLV      6245            0.0000000000
     18849      6256  TIP3      H2              1.5067470760       15.6964742966       -0.7954795779  SOLV      6245            0.0000000000
     18850      6257  TIP3      OH2             8.5333888628       12.1557193745        4.9497432335  SOLV      6246            0.0000000000
     18851      6257  TIP3      H1              8.4286754770       12.1303349773        5.9280170197  SOLV      6246            0.0000000000
     18852      6257  TIP3      H2              9.3006256469       11.5809280844        4.8240190949  SOLV      6246            0.0000000000
     18853      6258  TIP3      OH2             8.3660611670       11.1383190292       -6.2228897644  SOLV      6247            0.0000000000
     18854      6258  TIP3      H1              8.8892495347       10.8791265484       -5.4293601897  SOLV      6247            0.0000000000
     18855      6258  TIP3      H2              7.4930095337       10.7926820049       -5.9804023439  SOLV      6247            0.0000000000
     18856      6259  TIP3      OH2            11.0425313215       17.4530868150        5.4331442432  SOLV      6248            0.0000000000
     18857      6259  TIP3      H1             10.2338372968       16.9058585711        5.3817042444  SOLV      6248            0.0000000000
     18858      6259  TIP3      H2             10.8773472537       18.0973213384        4.7099029221  SOLV      6248            0.0000000000
     18859      6260  TIP3      OH2            11.7013254546       15.8012337272       -8.0555112036  SOLV      6249            0.0000000000
     18860      6260  TIP3      H1             12.0274073437       16.5449424938       -8.5867059290  SOLV      6249            0.0000000000
     18861      6260  TIP3      H2             10.8996456637       16.2181935571       -7.6762556471  SOLV      6249            0.0000000000
     18862      6261  TIP3      OH2             1.8471659022        3.5854832818       10.5874773771  SOLV      6250            0.0000000000
     18863      6261  TIP3      H1              0.8739235242        3.6374291576       10.6772828970  SOLV      6250            0.0000000000
     18864      6261  TIP3      H2              2.0810553426        2.9986369238       11.3232463426  SOLV      6250            0.0000000000
     18865      6262  TIP3      OH2             9.9355390185       10.4850366189       -4.0394676431  SOLV      6251            0.0000000000
     18866      6262  TIP3      H1              9.8138170544        9.7789425172       -3.3732276195  SOLV      6251            0.0000000000
     18867      6262  TIP3      H2             10.9101817320       10.4406978277       -4.1538106320  SOLV      6251            0.0000000000
     18868      6263  TIP3      OH2            -0.9273441261       14.4096412331        6.9185118315  SOLV      6252            0.0000000000
     18869      6263  TIP3      H1             -0.3799462020       13.6843814671        7.2625354976  SOLV      6252            0.0000000000
     18870      6263  TIP3      H2             -0.6407497521       15.1430899771        7.4772774200  SOLV      6252            0.0000000000
     18871      6264  TIP3      OH2             1.9707469214       10.8706786363       -6.2130285173  SOLV      6253            0.0000000000
     18872      6264  TIP3      H1              2.0834121906        9.9361920981       -6.4712776274  SOLV      6253            0.0000000000
     18873      6264  TIP3      H2              1.7334673129       10.7795019715       -5.2689596095  SOLV      6253            0.0000000000
     18874      6265  TIP3      OH2             1.3895228275       10.9476857697       -3.4975793933  SOLV      6254            0.0000000000
     18875      6265  TIP3      H1              2.1730993035       10.6664185797       -3.0038850131  SOLV      6254            0.0000000000
     18876      6265  TIP3      H2              1.4365054209       11.9264204783       -3.4134898983  SOLV      6254            0.0000000000
     18877      6266  TIP3      OH2            -1.2669855709        7.9141760599       -1.4618356629  SOLV      6255            0.0000000000
     18878      6266  TIP3      H1             -1.9695993219        8.3605680533       -0.9420333364  SOLV      6255            0.0000000000
     18879      6266  TIP3      H2             -1.1498965989        8.5646702319       -2.1829729957  SOLV      6255            0.0000000000
     18880      6267  TIP3      OH2            10.3065441160        4.2504437048        7.4903368915  SOLV      6256            0.0000000000
     18881      6267  TIP3      H1             11.1345820525        4.6026743802        7.8545914584  SOLV      6256            0.0000000000
     18882      6267  TIP3      H2             10.1734895228        3.4295451083        8.0110882495  SOLV      6256            0.0000000000
     18883      6268  TIP3      OH2             4.1056106138       12.9082089150       -4.0105563183  SOLV      6257            0.0000000000
     18884      6268  TIP3      H1              3.2273271781       13.1352791024       -3.6465377242  SOLV      6257            0.0000000000
     18885      6268  TIP3      H2              4.2220895422       13.6392640859       -4.6368687836  SOLV      6257            0.0000000000
     18886      6269  TIP3      OH2             8.6654098463        6.6890705248        8.1607677820  SOLV      6258            0.0000000000
     18887      6269  TIP3      H1              8.9365447911        7.1858137891        8.9587354600  SOLV      6258            0.0000000000
     18888      6269  TIP3      H2              9.1813347303        5.8656092243        8.2329763508  SOLV      6258            0.0000000000
     18889      6270  TIP3      OH2             1.5719346086       13.6693917519       -3.3215149608  SOLV      6259            0.0000000000
     18890      6270  TIP3      H1              1.2598292618       14.3657294431       -3.9415158857  SOLV      6259            0.0000000000
     18891      6270  TIP3      H2              1.3918827876       14.0904909875       -2.4523929392  SOLV      6259            0.0000000000
     18892      6271  TIP3      OH2            15.0466244904        5.7033114388        8.0260916598  SOLV      6260            0.0000000000
     18893      6271  TIP3      H1             14.0663763740        5.7073559140        8.1123919636  SOLV      6260            0.0000000000
     18894      6271  TIP3      H2             15.1331867249        5.2568180995        7.1731867135  SOLV      6260            0.0000000000
     18895      6272  TIP3      OH2            11.5371230589        7.6744807953        1.9018903997  SOLV      6261            0.0000000000
     18896      6272  TIP3      H1             10.7401451961        7.1152668104        1.9908103729  SOLV      6261            0.0000000000
     18897      6272  TIP3      H2             12.2060681749        7.1609987703        2.4002957085  SOLV      6261            0.0000000000
     18898      6273  TIP3      OH2            -1.2803515961        9.8966106830       -3.4556893738  SOLV      6262            0.0000000000
     18899      6273  TIP3      H1             -0.5497668361       10.5386118199       -3.3666806367  SOLV      6262            0.0000000000
     18900      6273  TIP3      H2             -0.8666974753        9.2946471135       -4.1149451962  SOLV      6262            0.0000000000
     18901      6274  TIP3      OH2            -2.0531860831        2.5652397099       -2.7408158631  SOLV      6263            0.0000000000
     18902      6274  TIP3      H1             -1.9925596095        3.5072948962       -2.4996830692  SOLV      6263            0.0000000000
     18903      6274  TIP3      H2             -1.8545596936        2.1353195922       -1.8900451352  SOLV      6263            0.0000000000
     18904      6275  TIP3      OH2            11.2649267543       17.2693483442        1.3602798817  SOLV      6264            0.0000000000
     18905      6275  TIP3      H1             10.8300420664       17.7443634962        0.6159505265  SOLV      6264            0.0000000000
     18906      6275  TIP3      H2             12.2079536710       17.4446920042        1.1428577879  SOLV      6264            0.0000000000
     18907      6276  TIP3      OH2             2.0884427611        0.0225881531        6.8366514216  SOLV      6265            0.0000000000
     18908      6276  TIP3      H1              1.7586350486       -0.3376338432        5.9784056087  SOLV      6265            0.0000000000
     18909      6276  TIP3      H2              1.9995073095       -0.7712147919        7.4071372471  SOLV      6265            0.0000000000
     18910      6277  TIP3      OH2            -2.6168267765       12.1109390262        0.3976778187  SOLV      6266            0.0000000000
     18911      6277  TIP3      H1             -3.2470936180       12.3887312960        1.0769166693  SOLV      6266            0.0000000000
     18912      6277  TIP3      H2             -2.9916422346       12.5465929130       -0.4064405003  SOLV      6266            0.0000000000
     18913      6278  TIP3      OH2            -0.9926510721       17.5891836356       11.1695926602  SOLV      6267            0.0000000000
     18914      6278  TIP3      H1             -0.1240081812       17.5888598114       11.6309452489  SOLV      6267            0.0000000000
     18915      6278  TIP3      H2             -1.1892768883       16.6375680537       11.1510696477  SOLV      6267            0.0000000000
     18916      6279  TIP3      OH2             3.7482924757       17.0854547135       11.6388883698  SOLV      6268            0.0000000000
     18917      6279  TIP3      H1              4.7044168442       16.9405557805       11.6522075938  SOLV      6268            0.0000000000
     18918      6279  TIP3      H2              3.4809296352       16.4724038104       10.9228605054  SOLV      6268            0.0000000000
     18919      6280  TIP3      OH2             3.5992379591       12.8876990223       -7.1283044610  SOLV      6269            0.0000000000
     18920      6280  TIP3      H1              3.0404865283       12.1660567587       -6.7540618641  SOLV      6269            0.0000000000
     18921      6280  TIP3      H2              4.3543182119       12.3732803538       -7.4634203194  SOLV      6269            0.0000000000
     18922      6281  TIP3      OH2            10.1518253526       16.2444001249        8.9775335583  SOLV      6270            0.0000000000
     18923      6281  TIP3      H1             10.0995764418       15.5420860815        9.6671108532  SOLV      6270            0.0000000000
     18924      6281  TIP3      H2             10.9362473786       16.7519815411        9.2629715110  SOLV      6270            0.0000000000
     18925      6282  TIP3      OH2             7.9532717598       13.2740506701       -7.9639051530  SOLV      6271            0.0000000000
     18926      6282  TIP3      H1              8.3114180376       12.5965412354       -7.3538459469  SOLV      6271            0.0000000000
     18927      6282  TIP3      H2              8.5385897703       13.1952483921       -8.7406626510  SOLV      6271            0.0000000000
     18928      6283  TIP3      OH2             0.2763622115       11.5954182676       13.1712617960  SOLV      6272            0.0000000000
     18929      6283  TIP3      H1              0.4316663147       10.6316349187       13.2249971040  SOLV      6272            0.0000000000
     18930      6283  TIP3      H2             -0.5870554753       11.6265517239       12.7030239071  SOLV      6272            0.0000000000
     18931      6284  TIP3      OH2             0.0694854478        8.0435026151       -4.8729592541  SOLV      6273            0.0000000000
     18932      6284  TIP3      H1              0.6393729298        7.7318276147       -4.1456553621  SOLV      6273            0.0000000000
     18933      6284  TIP3      H2              0.7364364393        8.1072161897       -5.5917668053  SOLV      6273            0.0000000000
     18934      6285  TIP3      OH2             6.3322242201       12.4653563040       10.9173490174  SOLV      6274            0.0000000000
     18935      6285  TIP3      H1              5.9274445605       12.6910371464       10.0537956710  SOLV      6274            0.0000000000
     18936      6285  TIP3      H2              6.6341794013       11.5428838225       10.7801749546  SOLV      6274            0.0000000000
     18937      6286  TIP3      OH2             5.2689030810       10.0794678095       -6.7978589412  SOLV      6275            0.0000000000
     18938      6286  TIP3      H1              5.2603976659       10.1813716270       -5.8242446151  SOLV      6275            0.0000000000
     18939      6286  TIP3      H2              5.2613589170        9.0994180604       -6.8748179708  SOLV      6275            0.0000000000
     18940      6287  TIP3      OH2            11.2810584390       12.5915454426        7.0165529526  SOLV      6276            0.0000000000
     18941      6287  TIP3      H1             12.0448725083       12.9979023554        6.5637331903  SOLV      6276            0.0000000000
     18942      6287  TIP3      H2             10.5875372359       13.2529751993        6.8254539072  SOLV      6276            0.0000000000
     18943      6288  TIP3      OH2             1.4823541769        9.0071022544       13.0348846450  SOLV      6277            0.0000000000
     18944      6288  TIP3      H1              2.2338626634        8.5051398552       12.6984333225  SOLV      6277            0.0000000000
     18945      6288  TIP3      H2              1.8100041807        9.3021107808       13.9099809479  SOLV      6277            0.0000000000
     18946      6289  TIP3      OH2             2.0874334902        7.2414353659       -2.7784982671  SOLV      6278            0.0000000000
     18947      6289  TIP3      H1              1.7689281656        6.7250485649       -2.0315500075  SOLV      6278            0.0000000000
     18948      6289  TIP3      H2              2.5418670037        6.5455339902       -3.3142549426  SOLV      6278            0.0000000000
     18949      6290  TIP3      OH2             4.8637322268        7.7922797293        9.6508324687  SOLV      6279            0.0000000000
     18950      6290  TIP3      H1              4.0528508752        8.3450952841        9.6213451742  SOLV      6279            0.0000000000
     18951      6290  TIP3      H2              5.3643109375        8.1343173021        8.8724481654  SOLV      6279            0.0000000000
     18952      6291  TIP3      OH2             3.2570887255        5.3146585988       -4.2644211014  SOLV      6280            0.0000000000
     18953      6291  TIP3      H1              2.9033315860        5.1729952193       -5.1600636120  SOLV      6280            0.0000000000
     18954      6291  TIP3      H2              4.2196296662        5.2188110564       -4.4157530739  SOLV      6280            0.0000000000
     18955      6292  TIP3      OH2            10.0249118129       11.8019137710       10.9501830968  SOLV      6281            0.0000000000
     18956      6292  TIP3      H1             10.7535933435       11.4475172223       10.4247036239  SOLV      6281            0.0000000000
     18957      6292  TIP3      H2              9.9411587314       11.1381769080       11.6582988822  SOLV      6281            0.0000000000
     18958      6293  TIP3      OH2            11.2681211221        8.3786935227       -7.5855414239  SOLV      6282            0.0000000000
     18959      6293  TIP3      H1             11.1098934263        7.8675478868       -8.4020492531  SOLV      6282            0.0000000000
     18960      6293  TIP3      H2             10.9039320899        9.2541606891       -7.8533223974  SOLV      6282            0.0000000000
     18961      6294  TIP3      OH2             6.0937191848        5.6833407600       10.8375587856  SOLV      6283            0.0000000000
     18962      6294  TIP3      H1              6.0792250050        4.8992360664       10.2511666776  SOLV      6283            0.0000000000
     18963      6294  TIP3      H2              5.6424889681        6.3594124660       10.2825135303  SOLV      6283            0.0000000000
     18964      6295  TIP3      OH2             6.1087362329        3.5308164571        8.9807792530  SOLV      6284            0.0000000000
     18965      6295  TIP3      H1              6.3892813835        3.9652344198        8.1493585946  SOLV      6284            0.0000000000
     18966      6295  TIP3      H2              5.1715866388        3.3153709714        8.7823996926  SOLV      6284            0.0000000000
     18967      6296  TIP3      OH2             6.3140497222        8.8831853117        7.6959865578  SOLV      6285            0.0000000000
     18968      6296  TIP3      H1              7.1732968398        9.0215487292        7.2783657055  SOLV      6285            0.0000000000
     18969      6296  TIP3      H2              5.7443865502        9.5210584409        7.2141402129  SOLV      6285            0.0000000000
     18970      6297  TIP3      OH2            12.1462840803        8.5294982572       11.4489174212  SOLV      6286            0.0000000000
     18971      6297  TIP3      H1             12.6366543856        7.6965056515       11.5227838885  SOLV      6286            0.0000000000
     18972      6297  TIP3      H2             12.8127448364        9.1218670581       11.0720735126  SOLV      6286            0.0000000000
     18973      6298  TIP3      OH2            12.5632730046       11.0903344029        8.8550713612  SOLV      6287            0.0000000000
     18974      6298  TIP3      H1             11.9879955943       11.6410590032        8.2716368480  SOLV      6287            0.0000000000
     18975      6298  TIP3      H2             13.4417783811       11.3017757173        8.4670237638  SOLV      6287            0.0000000000
     18976      6299  TIP3      OH2             4.8862325740        6.7011551445       13.2285817741  SOLV      6288            0.0000000000
     18977      6299  TIP3      H1              4.2055573262        6.0104487079       13.3700649294  SOLV      6288            0.0000000000
     18978      6299  TIP3      H2              5.1794766558        6.4960349449       12.3189860637  SOLV      6288            0.0000000000
     18979      6300  TIP3      OH2             7.4096224004        1.1416665902        9.6691983573  SOLV      6289            0.0000000000
     18980      6300  TIP3      H1              6.9103042689        1.9513584868        9.4251954441  SOLV      6289            0.0000000000
     18981      6300  TIP3      H2              6.7284723835        0.4494629106        9.5424066161  SOLV      6289            0.0000000000
     18982      6301  TIP3      OH2             8.6684930020        6.1425540451       11.7914306540  SOLV      6290            0.0000000000
     18983      6301  TIP3      H1              8.4698823734        5.9859845299       12.7339401415  SOLV      6290            0.0000000000
     18984      6301  TIP3      H2              7.7873692383        5.9314729492       11.4114915632  SOLV      6290            0.0000000000
     18985      6302  TIP3      OH2            11.0568366350        5.7078226435       10.3593794867  SOLV      6291            0.0000000000
     18986      6302  TIP3      H1             10.3065277845        5.7054240366       10.9874303224  SOLV      6291            0.0000000000
     18987      6302  TIP3      H2             11.8009185388        5.4027118454       10.9167918630  SOLV      6291            0.0000000000
     18988      6303  TIP3      OH2            13.3735732534        5.1221720239       11.8348019202  SOLV      6292            0.0000000000
     18989      6303  TIP3      H1             13.4918995207        4.1591050179       11.9767710511  SOLV      6292            0.0000000000
     18990      6303  TIP3      H2             13.3244670110        5.4680999423       12.7502900287  SOLV      6292            0.0000000000
     18991      6304  TIP3      OH2             3.2521598741        4.5210859534       13.7522023277  SOLV      6293            0.0000000000
     18992      6304  TIP3      H1              3.2500475662        3.6033214167       13.4123295806  SOLV      6293            0.0000000000
     18993      6304  TIP3      H2              3.6250346245        4.3832286761       14.6466333908  SOLV      6293            0.0000000000
     18994      6305  TIP3      OH2             8.3316380933        1.2272630743       12.2496942863  SOLV      6294            0.0000000000
     18995      6305  TIP3      H1              8.9814879281        0.5032540327       12.1563496251  SOLV      6294            0.0000000000
     18996      6305  TIP3      H2              7.9296150070        1.2148844982       11.3562135840  SOLV      6294            0.0000000000
     18997      6306  TIP3      OH2             9.0183736953        3.3842836313       13.8167688933  SOLV      6295            0.0000000000
     18998      6306  TIP3      H1              8.8058589159        2.6722450319       13.1738110949  SOLV      6295            0.0000000000
     18999      6306  TIP3      H2              8.2325754394        3.9663119203       13.7444416441  SOLV      6295            0.0000000000
     19000      6307  TIP3      OH2             1.2518425674       15.7154730805       -5.1971063382  SOLV      6296            0.0000000000
     19001      6307  TIP3      H1              2.1976311003       15.6061571906       -5.4088211540  SOLV      6296            0.0000000000
     19002      6307  TIP3      H2              0.9679661714       16.2288213828       -5.9774732865  SOLV      6296            0.0000000000
     19003      6308  TIP3      OH2            -3.9747006389        9.5099095486       -3.0569638521  SOLV      6297            0.0000000000
     19004      6308  TIP3      H1             -3.0306803793        9.7165717766       -3.2349552341  SOLV      6297            0.0000000000
     19005      6308  TIP3      H2             -4.0565003576        8.6248252767       -3.4765700318  SOLV      6297            0.0000000000
     19006      6309  TIP3      OH2            -4.8113497237       15.6283999777        1.1228907176  SOLV      6298            0.0000000000
     19007      6309  TIP3      H1             -5.4554715900       15.0147118720        0.7077376057  SOLV      6298            0.0000000000
     19008      6309  TIP3      H2             -4.3659226527       15.0226727273        1.7534655432  SOLV      6298            0.0000000000
     19009      6310  TIP3      OH2            -3.4828272347       14.0724730809        2.9812041054  SOLV      6299            0.0000000000
     19010      6310  TIP3      H1             -3.6039682174       13.3739335265        3.6469069570  SOLV      6299            0.0000000000
     19011      6310  TIP3      H2             -2.9422907731       14.7025844512        3.4904799701  SOLV      6299            0.0000000000
     19012      6311  TIP3      OH2            13.8370500643       18.1035137845        0.9925298110  SOLV      6300            0.0000000000
     19013      6311  TIP3      H1             14.0963337581       18.4240948806        1.8748778927  SOLV      6300            0.0000000000
     19014      6311  TIP3      H2             14.4914909919       18.5242449578        0.4145960476  SOLV      6300            0.0000000000
     19015      6312  TIP3      OH2            14.0926074779       18.3240944763        3.8133474198  SOLV      6301            0.0000000000
     19016      6312  TIP3      H1             13.6249980615       17.4622550376        3.7608340853  SOLV      6301            0.0000000000
     19017      6312  TIP3      H2             14.8367162404       18.0671354862        4.3803443855  SOLV      6301            0.0000000000
     19018      6313  TIP3      OH2            14.5660596772       15.0910608474        9.5406354079  SOLV      6302            0.0000000000
     19019      6313  TIP3      H1             13.8471777683       15.2084753691       10.1944980175  SOLV      6302            0.0000000000
     19020      6313  TIP3      H2             15.0011160154       15.9675169803        9.5691039392  SOLV      6302            0.0000000000
     19021      6314  TIP3      OH2            12.6901220457       10.3175208309       -4.2011256621  SOLV      6303            0.0000000000
     19022      6314  TIP3      H1             13.3709569315       10.9155796651       -4.5693790151  SOLV      6303            0.0000000000
     19023      6314  TIP3      H2             13.1875148419        9.8804533774       -3.4773594628  SOLV      6303            0.0000000000
     19024      6315  TIP3      OH2            14.0188392004        8.8705969298       -2.2211618105  SOLV      6304            0.0000000000
     19025      6315  TIP3      H1             13.3398735223        8.4674524648       -1.6412590044  SOLV      6304            0.0000000000
     19026      6315  TIP3      H2             14.6423949721        9.2705425590       -1.5831542050  SOLV      6304            0.0000000000
     19027      6316  TIP3      OH2            14.5978875869       12.8599051355        2.0824092650  SOLV      6305            0.0000000000
     19028      6316  TIP3      H1             15.0868948850       12.1588950948        1.6086488446  SOLV      6305            0.0000000000
     19029      6316  TIP3      H2             14.5484312482       13.5691324896        1.4114107832  SOLV      6305            0.0000000000
     19030      6317  TIP3      OH2            12.8320219156       15.8405691764        4.0075067961  SOLV      6306            0.0000000000
     19031      6317  TIP3      H1             12.1030532643       16.2540446535        4.5094393717  SOLV      6306            0.0000000000
     19032      6317  TIP3      H2             12.3480645031       15.3896256349        3.2809056238  SOLV      6306            0.0000000000
     19033      6318  TIP3      OH2            13.4336950460        8.2412779883       -5.8869637738  SOLV      6307            0.0000000000
     19034      6318  TIP3      H1             12.6968734154        8.0817925410       -6.5109045674  SOLV      6307            0.0000000000
     19035      6318  TIP3      H2             13.0302829200        8.9105547714       -5.3066713854  SOLV      6307            0.0000000000
     19036      6319  TIP3      OH2            12.1270945664        7.4406820238       -0.7352417248  SOLV      6308            0.0000000000
     19037      6319  TIP3      H1             11.8415783208        6.5255216379       -0.6311385165  SOLV      6308            0.0000000000
     19038      6319  TIP3      H2             11.9842635441        7.7635455256        0.1835787472  SOLV      6308            0.0000000000
     19039      6320  TIP3      OH2            -1.6328636065        8.1824692439        6.7214079840  SOLV      6309            0.0000000000
     19040      6320  TIP3      H1             -1.6674743470        7.8640147153        5.7913406966  SOLV      6309            0.0000000000
     19041      6320  TIP3      H2             -0.6576220875        8.1987696335        6.8624444664  SOLV      6309            0.0000000000
     19042      6321  TIP3      OH2            15.0360696590       11.7368770602        7.7973383835  SOLV      6310            0.0000000000
     19043      6321  TIP3      H1             15.7386605818       11.0624690727        7.6655638170  SOLV      6310            0.0000000000
     19044      6321  TIP3      H2             15.2583309110       12.4044412011        7.1287582115  SOLV      6310            0.0000000000
     19045      6322  TIP3      OH2            16.8388419996        9.7063912462        7.8331862803  SOLV      6311            0.0000000000
     19046      6322  TIP3      H1             16.0925071978        9.2283182289        8.2565489687  SOLV      6311            0.0000000000
     19047      6322  TIP3      H2             17.5713078634        9.0834329736        8.0279905024  SOLV      6311            0.0000000000
     19048      6323  TIP3      OH2            12.4401613189        4.3969634832       -1.8181685334  SOLV      6312            0.0000000000
     19049      6323  TIP3      H1             13.0883271293        4.5413023797       -1.1082264776  SOLV      6312            0.0000000000
     19050      6323  TIP3      H2             12.5748621153        5.1756433024       -2.3762575603  SOLV      6312            0.0000000000
     19051      6324  TIP3      OH2            13.6861878235        6.3175525323        3.1235285795  SOLV      6313            0.0000000000
     19052      6324  TIP3      H1             14.5378185688        6.5722913481        2.7025616886  SOLV      6313            0.0000000000
     19053      6324  TIP3      H2             13.8252362750        6.7078854925        4.0082949686  SOLV      6313            0.0000000000
     19054      6325  TIP3      OH2            14.4318299507        7.8123969154        5.3845939370  SOLV      6314            0.0000000000
     19055      6325  TIP3      H1             13.6533195720        8.1425573812        5.8729380011  SOLV      6314            0.0000000000
     19056      6325  TIP3      H2             14.7477658293        8.6313498091        4.9442576623  SOLV      6314            0.0000000000
     19057      6326  TIP3      OH2             0.5906580284        5.0784485360       13.5268191544  SOLV      6315            0.0000000000
     19058      6326  TIP3      H1              1.5666381551        4.9921081749       13.5117779381  SOLV      6315            0.0000000000
     19059      6326  TIP3      H2              0.3394533482        4.1856647605       13.8328569204  SOLV      6315            0.0000000000
     19060      6327  TIP3      OH2            18.9323302255        3.7708915605       10.9511566574  SOLV      6316            0.0000000000
     19061      6327  TIP3      H1             19.5461099577        3.1291959595       10.5325815199  SOLV      6316            0.0000000000
     19062      6327  TIP3      H2             18.6019447182        4.2670708985       10.1707760330  SOLV      6316            0.0000000000
     19063      6328  TIP3      OH2             0.1751701133        2.0303691417        6.6608089672  SOLV      6317            0.0000000000
     19064      6328  TIP3      H1              0.7641789978        1.2633782552        6.8052454011  SOLV      6317            0.0000000000
     19065      6328  TIP3      H2              0.8234389140        2.7580721528        6.6795081764  SOLV      6317            0.0000000000
     19066      6329  TIP3      OH2            -1.8038796186        4.7366372567        7.4703850016  SOLV      6318            0.0000000000
     19067      6329  TIP3      H1             -1.3209299013        4.7309687611        6.6189220384  SOLV      6318            0.0000000000
     19068      6329  TIP3      H2             -1.5413528621        5.5906767607        7.8301336963  SOLV      6318            0.0000000000
     19069      6330  TIP3      OH2            17.5872077732        5.0796378627        8.9888171355  SOLV      6319            0.0000000000
     19070      6330  TIP3      H1             16.7458133138        5.5428100960        9.1805367414  SOLV      6319            0.0000000000
     19071      6330  TIP3      H2             17.2433638188        4.3582605660        8.4232748081  SOLV      6319            0.0000000000
     19072      6331  TIP3      OH2             9.6630640299       16.8206410821       -2.4628229952  SOLV      6320            0.0000000000
     19073      6331  TIP3      H1             10.1512058869       16.7072589799       -3.3052002576  SOLV      6320            0.0000000000
     19074      6331  TIP3      H2             10.2064869634       17.4808663264       -2.0086341174  SOLV      6320            0.0000000000
     19075      6332  TIP3      OH2             0.2683258206        0.5556048946       10.6085064414  SOLV      6321            0.0000000000
     19076      6332  TIP3      H1             -0.2749844748        0.4990400479       11.4107092610  SOLV      6321            0.0000000000
     19077      6332  TIP3      H2             -0.3766739523        0.9456693071        9.9836234403  SOLV      6321            0.0000000000
     19078      6333  TIP3      OH2             0.6349076095       14.8815297664       11.3446741391  SOLV      6322            0.0000000000
     19079      6333  TIP3      H1             -0.2933724958       14.6285448062       11.1803050246  SOLV      6322            0.0000000000
     19080      6333  TIP3      H2              0.7366839309       14.6645328342       12.2783977411  SOLV      6322            0.0000000000
     19081      6334  TIP3      OH2             2.4584738314       15.2278155875        6.8543619523  SOLV      6323            0.0000000000
     19082      6334  TIP3      H1              1.9801801996       15.9837330375        6.4535179806  SOLV      6323            0.0000000000
     19083      6334  TIP3      H2              3.3159666248       15.3534796685        6.3981650673  SOLV      6323            0.0000000000
     19084      6335  TIP3      OH2             6.8268680910       17.6055808399        8.2147825165  SOLV      6324            0.0000000000
     19085      6335  TIP3      H1              7.2534709861       17.6014354949        9.0986614414  SOLV      6324            0.0000000000
     19086      6335  TIP3      H2              7.4778180799       18.1322818963        7.7029946097  SOLV      6324            0.0000000000
     19087      6336  TIP3      OH2             8.6242983232       19.1661367061        6.8521706032  SOLV      6325            0.0000000000
     19088      6336  TIP3      H1              9.3133625152       18.6592668311        6.3998463322  SOLV      6325            0.0000000000
     19089      6336  TIP3      H2              9.1685832835       19.7223211489        7.4525480544  SOLV      6325            0.0000000000
     19090      6337  TIP3      OH2            16.6043134280        2.7300204912        7.8056008076  SOLV      6326            0.0000000000
     19091      6337  TIP3      H1             15.7109093434        2.6425826041        7.4284433177  SOLV      6326            0.0000000000
     19092      6337  TIP3      H2             16.9363192619        1.8063719196        7.7200579605  SOLV      6326            0.0000000000
     19093      6338  TIP3      OH2            -0.8213537679       17.7524866581        7.0953056685  SOLV      6327            0.0000000000
     19094      6338  TIP3      H1             -1.7285621006       18.0594990077        6.8711887897  SOLV      6327            0.0000000000
     19095      6338  TIP3      H2             -0.6863684155       18.2197178141        7.9301217952  SOLV      6327            0.0000000000
     19096      6339  TIP3      OH2             1.5539032641       17.5487768345        5.6949267663  SOLV      6328            0.0000000000
     19097      6339  TIP3      H1              0.6705825703       17.6612768653        6.1125340434  SOLV      6328            0.0000000000
     19098      6339  TIP3      H2              1.3730676107       17.8405787286        4.7793659112  SOLV      6328            0.0000000000
     19099      6340  TIP3      OH2             5.7968805494       17.7784120794        3.6733099346  SOLV      6329            0.0000000000
     19100      6340  TIP3      H1              5.1019865712       17.9384766926        3.0081671653  SOLV      6329            0.0000000000
     19101      6340  TIP3      H2              5.9021660978       18.6691122025        4.0666929650  SOLV      6329            0.0000000000
     19102      6341  TIP3      OH2             8.4964306395       17.1811381740        4.2133796902  SOLV      6330            0.0000000000
     19103      6341  TIP3      H1              7.5590727254       17.3558134679        3.9963391663  SOLV      6330            0.0000000000
     19104      6341  TIP3      H2              8.9455383898       17.8839269398        3.7171696205  SOLV      6330            0.0000000000
     19105      6342  TIP3      OH2            10.5573306398       19.0964546189        3.2944184567  SOLV      6331            0.0000000000
     19106      6342  TIP3      H1             10.4118244991       19.9336533584        2.8058047311  SOLV      6331            0.0000000000
     19107      6342  TIP3      H2             10.8257739218       18.4886848800        2.5689526051  SOLV      6331            0.0000000000
     19108      6343  TIP3      OH2            -1.7103682274       15.6639706645        4.5330322390  SOLV      6332            0.0000000000
     19109      6343  TIP3      H1             -1.4352528814       15.3753092004        5.4297550582  SOLV      6332            0.0000000000
     19110      6343  TIP3      H2             -0.9922311810       15.2382084863        4.0105704848  SOLV      6332            0.0000000000
     19111      6344  TIP3      OH2             0.2526281983       14.4131452065        3.1410088379  SOLV      6333            0.0000000000
     19112      6344  TIP3      H1              0.4019837102       13.5735262071        3.6392627934  SOLV      6333            0.0000000000
     19113      6344  TIP3      H2              1.1689268997       14.7546122845        3.0804372037  SOLV      6333            0.0000000000
     19114      6345  TIP3      OH2             2.9409782914       15.3160159053        3.1812750596  SOLV      6334            0.0000000000
     19115      6345  TIP3      H1              3.2279828115       14.3920082374        3.0533985601  SOLV      6334            0.0000000000
     19116      6345  TIP3      H2              3.4316813741       15.5252480222        3.9990997605  SOLV      6334            0.0000000000
     19117      6346  TIP3      OH2             8.6897259487        1.9700620996        4.1751441680  SOLV      6335            0.0000000000
     19118      6346  TIP3      H1              8.2700201298        1.2194719090        4.6290105853  SOLV      6335            0.0000000000
     19119      6346  TIP3      H2              9.2662318762        1.5351437474        3.5262352841  SOLV      6335            0.0000000000
     19120      6347  TIP3      OH2            13.8806007205        0.6348806997        3.0683970646  SOLV      6336            0.0000000000
     19121      6347  TIP3      H1             14.2474169425        1.1677805579        2.3268883602  SOLV      6336            0.0000000000
     19122      6347  TIP3      H2             12.9247916735        0.8353173235        3.0041401999  SOLV      6336            0.0000000000
     19123      6348  TIP3      OH2            14.9284741585        1.6239284761        0.7583686110  SOLV      6337            0.0000000000
     19124      6348  TIP3      H1             15.6243839285        1.1539273657        0.2715588862  SOLV      6337            0.0000000000
     19125      6348  TIP3      H2             15.1261787886        2.5460065314        0.5048615776  SOLV      6337            0.0000000000
     19126      6349  TIP3      OH2             1.1807796753       -1.0555856560        4.5733581135  SOLV      6338            0.0000000000
     19127      6349  TIP3      H1              0.2812968622       -1.4468985355        4.5489081059  SOLV      6338            0.0000000000
     19128      6349  TIP3      H2              1.7157116629       -1.8141054615        4.2679828790  SOLV      6338            0.0000000000
     19129      6350  TIP3      OH2             5.5081553356       -0.7342911870        3.1036871400  SOLV      6339            0.0000000000
     19130      6350  TIP3      H1              5.5870785865       -0.3276549527        2.2256169346  SOLV      6339            0.0000000000
     19131      6350  TIP3      H2              6.1547826767       -0.2501952056        3.6388264545  SOLV      6339            0.0000000000
     19132      6351  TIP3      OH2            11.1092972212        0.7965382778        2.8095482732  SOLV      6340            0.0000000000
     19133      6351  TIP3      H1             10.9297065503        0.3823665247        1.9575878932  SOLV      6340            0.0000000000
     19134      6351  TIP3      H2             10.9649641292        0.0336984040        3.4184499077  SOLV      6340            0.0000000000
     19135      6352  TIP3      OH2            -3.8346321514       13.4631718361       -1.5952578036  SOLV      6341            0.0000000000
     19136      6352  TIP3      H1             -4.6905306356       13.1147742436       -1.9078544690  SOLV      6341            0.0000000000
     19137      6352  TIP3      H2             -3.9171127021       14.3846350719       -1.9049841436  SOLV      6341            0.0000000000
     19138      6353  TIP3      OH2             3.9175923850       15.2196683258       -5.7254589722  SOLV      6342            0.0000000000
     19139      6353  TIP3      H1              4.7893571314       15.4633269174       -6.1007918380  SOLV      6342            0.0000000000
     19140      6353  TIP3      H2              3.6867279265       14.4871789218       -6.3415964492  SOLV      6342            0.0000000000
     19141      6354  TIP3      OH2            11.1228048175       16.4779884763       -4.7851773702  SOLV      6343            0.0000000000
     19142      6354  TIP3      H1             11.0547584394       15.4968424268       -4.8779093065  SOLV      6343            0.0000000000
     19143      6354  TIP3      H2             10.6356285502       16.7661307973       -5.5844970670  SOLV      6343            0.0000000000
     19144      6355  TIP3      OH2             3.2028275632        1.7956980426       13.1048827047  SOLV      6344            0.0000000000
     19145      6355  TIP3      H1              2.8325501613        1.0774861371       13.6474385215  SOLV      6344            0.0000000000
     19146      6355  TIP3      H2              4.1416534269        1.7745144559       13.3913390283  SOLV      6344            0.0000000000
     19147      6356  TIP3      OH2             5.7262224704        1.7637847841       14.2820843396  SOLV      6345            0.0000000000
     19148      6356  TIP3      H1              6.5697393532        1.5139427457       13.8688074036  SOLV      6345            0.0000000000
     19149      6356  TIP3      H2              5.6054616467        1.0432154867       14.9344469263  SOLV      6345            0.0000000000
     19150      6357  TIP3      OH2            -3.0616491659       13.6030054773       -5.2085354490  SOLV      6346            0.0000000000
     19151      6357  TIP3      H1             -2.9989881664       13.7977209425       -4.2644817807  SOLV      6346            0.0000000000
     19152      6357  TIP3      H2             -2.1969056487       13.1605749013       -5.3839097829  SOLV      6346            0.0000000000
     19153      6358  TIP3      OH2            14.0039426271        2.4022788719       12.1299856115  SOLV      6347            0.0000000000
     19154      6358  TIP3      H1             14.1711314064        2.0935574858       13.0473356476  SOLV      6347            0.0000000000
     19155      6358  TIP3      H2             14.9008802957        2.3465883624       11.7382313577  SOLV      6347            0.0000000000
     19156      6359  TIP3      OH2            13.3194002919       17.8907173117        7.0582587899  SOLV      6348            0.0000000000
     19157      6359  TIP3      H1             12.5417787417       17.5965025306        6.5398228896  SOLV      6348            0.0000000000
     19158      6359  TIP3      H2             13.1275775379       18.8474066891        7.1332141400  SOLV      6348            0.0000000000
     19159      6360  TIP3      OH2            26.0257535153       11.6353120511       -5.3061535662  SOLV      6349            0.0000000000
     19160      6360  TIP3      H1             25.6998658484       12.5334918235       -5.5241643961  SOLV      6349            0.0000000000
     19161      6360  TIP3      H2             25.2910690925       11.1034148124       -5.6630458278  SOLV      6349            0.0000000000
     19162      6361  TIP3      OH2            26.0437368788       11.6594356592       -1.4249670368  SOLV      6350            0.0000000000
     19163      6361  TIP3      H1             26.3792384914       11.3873216185       -0.5514935928  SOLV      6350            0.0000000000
     19164      6361  TIP3      H2             25.6234790912       10.8450701932       -1.7429502707  SOLV      6350            0.0000000000
     19165      6362  TIP3      OH2            18.9833385597       10.5467248324        2.1935159961  SOLV      6351            0.0000000000
     19166      6362  TIP3      H1             19.2810537423        9.8510604191        2.8086186830  SOLV      6351            0.0000000000
     19167      6362  TIP3      H2             19.7894666346       11.0737557546        2.1046258661  SOLV      6351            0.0000000000
     19168      6363  TIP3      OH2            28.4938019853       14.6792742827       -4.6218599378  SOLV      6352            0.0000000000
     19169      6363  TIP3      H1             28.2893772403       13.9999070001       -3.9665467662  SOLV      6352            0.0000000000
     19170      6363  TIP3      H2             28.7944911227       15.4215583817       -4.0712959676  SOLV      6352            0.0000000000
     19171      6364  TIP3      OH2            18.7454654678       14.6925262976       -0.6000195312  SOLV      6353            0.0000000000
     19172      6364  TIP3      H1             18.6632242951       13.7141033586       -0.5953879179  SOLV      6353            0.0000000000
     19173      6364  TIP3      H2             19.7120721092       14.7853942118       -0.6773655480  SOLV      6353            0.0000000000
     19174      6365  TIP3      OH2            15.7454856207        6.6148362024       -2.8286306352  SOLV      6354            0.0000000000
     19175      6365  TIP3      H1             15.3105048933        7.4501637929       -2.5717244327  SOLV      6354            0.0000000000
     19176      6365  TIP3      H2             15.2362965508        6.3836617060       -3.6205830549  SOLV      6354            0.0000000000
     19177      6366  TIP3      OH2            16.3694344724        9.5800160223       -0.9290717498  SOLV      6355            0.0000000000
     19178      6366  TIP3      H1             16.8879728887        8.8014010470       -0.6279665573  SOLV      6355            0.0000000000
     19179      6366  TIP3      H2             16.9392315339        9.9517727024       -1.6155791793  SOLV      6355            0.0000000000
     19180      6367  TIP3      OH2            25.0112082653       19.2853405890       -4.4357699593  SOLV      6356            0.0000000000
     19181      6367  TIP3      H1             25.3942548790       18.5775209119       -4.9955102520  SOLV      6356            0.0000000000
     19182      6367  TIP3      H2             24.8885517960       18.8213568857       -3.5986316026  SOLV      6356            0.0000000000
     19183      6368  TIP3      OH2            23.9809951390       13.9083507310       -0.9712286421  SOLV      6357            0.0000000000
     19184      6368  TIP3      H1             24.3931075406       13.1449312034       -1.4096418074  SOLV      6357            0.0000000000
     19185      6368  TIP3      H2             24.8018186816       14.3827889423       -0.7158444176  SOLV      6357            0.0000000000
     19186      6369  TIP3      OH2            34.1143377556        7.1218936483       -1.0272197094  SOLV      6358            0.0000000000
     19187      6369  TIP3      H1             34.4133715564        7.9755278993       -0.6623230409  SOLV      6358            0.0000000000
     19188      6369  TIP3      H2             34.3989030302        7.2157581983       -1.9609318948  SOLV      6358            0.0000000000
     19189      6370  TIP3      OH2            28.1155723430        8.8647128871       -0.6914609270  SOLV      6359            0.0000000000
     19190      6370  TIP3      H1             28.5538405247        8.0154286132       -0.4929496672  SOLV      6359            0.0000000000
     19191      6370  TIP3      H2             27.7972042117        8.6987005088       -1.6000939201  SOLV      6359            0.0000000000
     19192      6371  TIP3      OH2            21.5480716736        5.4757341859       -1.0402698559  SOLV      6360            0.0000000000
     19193      6371  TIP3      H1             21.3607075097        6.2127231788       -1.6601965393  SOLV      6360            0.0000000000
     19194      6371  TIP3      H2             21.0444356360        4.7577569440       -1.4791935171  SOLV      6360            0.0000000000
     19195      6372  TIP3      OH2            28.4870198233        6.4442412865       -4.8292553094  SOLV      6361            0.0000000000
     19196      6372  TIP3      H1             29.2002562709        6.2923775426       -4.1666726313  SOLV      6361            0.0000000000
     19197      6372  TIP3      H2             29.0202077343        6.7672285960       -5.5802747772  SOLV      6361            0.0000000000
     19198      6373  TIP3      OH2            17.8481465332        7.5024759547        0.0677461442  SOLV      6362            0.0000000000
     19199      6373  TIP3      H1             18.6792573952        7.3391378486        0.5525347633  SOLV      6362            0.0000000000
     19200      6373  TIP3      H2             18.0139240191        6.9605392459       -0.7345504497  SOLV      6362            0.0000000000
     19201      6374  TIP3      OH2            22.2363985663        9.4802168507       -1.9505654149  SOLV      6363            0.0000000000
     19202      6374  TIP3      H1             23.1857559644        9.2488330686       -1.8614856902  SOLV      6363            0.0000000000
     19203      6374  TIP3      H2             21.8630365180        8.6449406617       -2.3060897856  SOLV      6363            0.0000000000
     19204      6375  TIP3      OH2            34.8913038425        9.1894142288        0.7497991230  SOLV      6364            0.0000000000
     19205      6375  TIP3      H1             34.0425043136        9.6354773635        0.5437727264  SOLV      6364            0.0000000000
     19206      6375  TIP3      H2             35.1508272992        9.6438454649        1.5713769475  SOLV      6364            0.0000000000
     19207      6376  TIP3      OH2            21.4699510471        5.3362682009        3.3375039227  SOLV      6365            0.0000000000
     19208      6376  TIP3      H1             20.8824345875        5.7056669466        2.6509632571  SOLV      6365            0.0000000000
     19209      6376  TIP3      H2             20.9320321217        5.5116566115        4.1379565997  SOLV      6365            0.0000000000
     19210      6377  TIP3      OH2            24.8602168641       13.8099586295       -6.5912796868  SOLV      6366            0.0000000000
     19211      6377  TIP3      H1             24.4949400752       13.7054481520       -7.4824086171  SOLV      6366            0.0000000000
     19212      6377  TIP3      H2             24.4168832119       14.6344008075       -6.3015430841  SOLV      6366            0.0000000000
     19213      6378  TIP3      OH2            22.5428977692       13.0973771881        1.2328647879  SOLV      6367            0.0000000000
     19214      6378  TIP3      H1             21.9556943098       13.7974208777        1.5945765285  SOLV      6367            0.0000000000
     19215      6378  TIP3      H2             22.9672641845       13.5605875475        0.4792918306  SOLV      6367            0.0000000000
     19216      6379  TIP3      OH2            30.5089846948        6.4843210755       -3.0219227109  SOLV      6368            0.0000000000
     19217      6379  TIP3      H1             30.3576267109        6.0496776837       -2.1734281779  SOLV      6368            0.0000000000
     19218      6379  TIP3      H2             31.0350828437        7.2645689259       -2.7614272351  SOLV      6368            0.0000000000
     19219      6380  TIP3      OH2            20.1985040980        6.4670879889        1.1540386941  SOLV      6369            0.0000000000
     19220      6380  TIP3      H1             20.8142437484        7.1930640777        1.4036496173  SOLV      6369            0.0000000000
     19221      6380  TIP3      H2             20.6978930505        6.0730256912        0.4027261921  SOLV      6369            0.0000000000
     19222      6381  TIP3      OH2            20.8559952729       15.0765082695        2.2576896235  SOLV      6370            0.0000000000
     19223      6381  TIP3      H1             20.5965174397       15.9487816872        1.8966847562  SOLV      6370            0.0000000000
     19224      6381  TIP3      H2             20.0530287924       14.8845749070        2.7896795430  SOLV      6370            0.0000000000
     19225      6382  TIP3      OH2            14.7037779997       11.9485414230       -5.3963143102  SOLV      6371            0.0000000000
     19226      6382  TIP3      H1             14.3071409736       12.1930751098       -6.2541907604  SOLV      6371            0.0000000000
     19227      6382  TIP3      H2             15.0347295965       12.8100491095       -5.0735378065  SOLV      6371            0.0000000000
     19228      6383  TIP3      OH2            29.1438571204       17.1229428086       -2.9894780317  SOLV      6372            0.0000000000
     19229      6383  TIP3      H1             28.2455661888       17.0269609687       -2.5965915436  SOLV      6372            0.0000000000
     19230      6383  TIP3      H2             29.0509067200       17.9811078303       -3.4496620814  SOLV      6372            0.0000000000
     19231      6384  TIP3      OH2            32.0918069632        6.0508229474        0.6516887364  SOLV      6373            0.0000000000
     19232      6384  TIP3      H1             31.2164689289        6.3007709119        0.3106989554  SOLV      6373            0.0000000000
     19233      6384  TIP3      H2             32.6904629704        6.4047523993       -0.0402503252  SOLV      6373            0.0000000000
     19234      6385  TIP3      OH2            24.9826735450        2.4656302958        0.4991535152  SOLV      6374            0.0000000000
     19235      6385  TIP3      H1             24.8062259289        1.5215628700        0.6764004960  SOLV      6374            0.0000000000
     19236      6385  TIP3      H2             24.2240266569        2.8766582871        0.9685067572  SOLV      6374            0.0000000000
     19237      6386  TIP3      OH2            26.1093424036       17.5502285016       -6.3080470461  SOLV      6375            0.0000000000
     19238      6386  TIP3      H1             26.6038175739       16.7115639237       -6.4736983616  SOLV      6375            0.0000000000
     19239      6386  TIP3      H2             26.7599012707       18.1890987482       -6.6802923605  SOLV      6375            0.0000000000
     19240      6387  TIP3      OH2            27.5600058014       15.3945980854       -7.1183044612  SOLV      6376            0.0000000000
     19241      6387  TIP3      H1             27.2863965391       14.5810355666       -7.5620009194  SOLV      6376            0.0000000000
     19242      6387  TIP3      H2             27.9528218705       15.0468388596       -6.2869232640  SOLV      6376            0.0000000000
     19243      6388  TIP3      OH2            31.4155274581       16.1830597464        0.4549553369  SOLV      6377            0.0000000000
     19244      6388  TIP3      H1             31.2659228994       15.4181560153       -0.1431957791  SOLV      6377            0.0000000000
     19245      6388  TIP3      H2             31.2110913397       16.9377072658       -0.1378402127  SOLV      6377            0.0000000000
     19246      6389  TIP3      OH2            24.3412926309       10.1566324787       -6.9353448359  SOLV      6378            0.0000000000
     19247      6389  TIP3      H1             23.5469130131       10.6915731960       -7.1412499012  SOLV      6378            0.0000000000
     19248      6389  TIP3      H2             24.7759292351       10.1028267407       -7.8060700723  SOLV      6378            0.0000000000
     19249      6390  TIP3      OH2            23.9152267261        8.0183602982       -9.8536267353  SOLV      6379            0.0000000000
     19250      6390  TIP3      H1             24.5803744671        8.5600996174       -9.3922172913  SOLV      6379            0.0000000000
     19251      6390  TIP3      H2             24.5026135836        7.3901129656      -10.3249978083  SOLV      6379            0.0000000000
     19252      6391  TIP3      OH2            33.3437880442       12.6228555576       -1.0478573924  SOLV      6380            0.0000000000
     19253      6391  TIP3      H1             32.4919748203       13.1135023422       -1.0395969797  SOLV      6380            0.0000000000
     19254      6391  TIP3      H2             33.6527317326       12.8387270416       -1.9559096661  SOLV      6380            0.0000000000
     19255      6392  TIP3      OH2            27.8149595000       10.9939162635       -7.2863334568  SOLV      6381            0.0000000000
     19256      6392  TIP3      H1             27.2690498071       11.2156713511       -6.4967309761  SOLV      6381            0.0000000000
     19257      6392  TIP3      H2             28.6622080790       10.7544955183       -6.8560344875  SOLV      6381            0.0000000000
     19258      6393  TIP3      OH2            30.1329994017       11.3365771161        1.9233181198  SOLV      6382            0.0000000000
     19259      6393  TIP3      H1             30.0980819042       12.1844315189        2.4030367966  SOLV      6382            0.0000000000
     19260      6393  TIP3      H2             29.2691559579       11.3592743347        1.4612685514  SOLV      6382            0.0000000000
     19261      6394  TIP3      OH2            20.1160358337       10.9275633043       -3.0640090270  SOLV      6383            0.0000000000
     19262      6394  TIP3      H1             19.6979882085       10.3431880712       -3.7338516843  SOLV      6383            0.0000000000
     19263      6394  TIP3      H2             20.8800840091       10.3904054931       -2.7689815889  SOLV      6383            0.0000000000
     19264      6395  TIP3      OH2            21.4182178161       15.0724036803       -1.6171459692  SOLV      6384            0.0000000000
     19265      6395  TIP3      H1             21.2177075433       14.7566020087       -2.5130804912  SOLV      6384            0.0000000000
     19266      6395  TIP3      H2             22.3013509889       14.6819635176       -1.4521025261  SOLV      6384            0.0000000000
     19267      6396  TIP3      OH2            21.4654683340       10.6557142632        0.4773915794  SOLV      6385            0.0000000000
     19268      6396  TIP3      H1             21.7933981350       10.3892687954       -0.4082197632  SOLV      6385            0.0000000000
     19269      6396  TIP3      H2             21.9156629796       11.5140663540        0.6250921917  SOLV      6385            0.0000000000
     19270      6397  TIP3      OH2            26.7419657570       17.0457304308       -1.7642536378  SOLV      6386            0.0000000000
     19271      6397  TIP3      H1             26.6144167060       17.8454267665       -1.2238617441  SOLV      6386            0.0000000000
     19272      6397  TIP3      H2             26.5620985902       16.3183866055       -1.1358408147  SOLV      6386            0.0000000000
     19273      6398  TIP3      OH2            22.8902039704       16.2191235354        3.7310293102  SOLV      6387            0.0000000000
     19274      6398  TIP3      H1             22.2566108804       16.8283981600        4.1706100322  SOLV      6387            0.0000000000
     19275      6398  TIP3      H2             22.2638343999       15.6832065335        3.2000803646  SOLV      6387            0.0000000000
     19276      6399  TIP3      OH2            26.1598045141        9.5755871433       -8.9953649540  SOLV      6388            0.0000000000
     19277      6399  TIP3      H1             26.7618667454       10.1827839270       -8.5113082842  SOLV      6388            0.0000000000
     19278      6399  TIP3      H2             26.4324771084        9.7609710175       -9.9294048954  SOLV      6388            0.0000000000
     19279      6400  TIP3      OH2            20.4450007570       11.7228315483        4.7988129364  SOLV      6389            0.0000000000
     19280      6400  TIP3      H1             20.4805238301       12.6310857014        5.1620728402  SOLV      6389            0.0000000000
     19281      6400  TIP3      H2             19.4903478220       11.5335357803        4.9112549987  SOLV      6389            0.0000000000
     19282      6401  TIP3      OH2            23.6625135288       16.3119346167       -6.2135856905  SOLV      6390            0.0000000000
     19283      6401  TIP3      H1             24.4994857085       16.8170237304       -6.1862467212  SOLV      6390            0.0000000000
     19284      6401  TIP3      H2             23.0706038975       16.9147464274       -6.6802898938  SOLV      6390            0.0000000000
     19285      6402  TIP3      OH2            20.8122229711       17.8545215665        4.5804219165  SOLV      6391            0.0000000000
     19286      6402  TIP3      H1             20.4535271356       17.9156742436        3.6746633898  SOLV      6391            0.0000000000
     19287      6402  TIP3      H2             20.0045429184       17.6506820366        5.1055326116  SOLV      6391            0.0000000000
     19288      6403  TIP3      OH2            31.3453023080        1.9723444254       -8.4981851698  SOLV      6392            0.0000000000
     19289      6403  TIP3      H1             30.5310137314        2.2190251014       -8.0152795705  SOLV      6392            0.0000000000
     19290      6403  TIP3      H2             31.5368408552        2.7992620908       -8.9890559427  SOLV      6392            0.0000000000
     19291      6404  TIP3      OH2            18.7793811366        9.3531572572       -4.9981490291  SOLV      6393            0.0000000000
     19292      6404  TIP3      H1             18.1248918912        9.8547279035       -5.5331936819  SOLV      6393            0.0000000000
     19293      6404  TIP3      H2             18.3908720104        8.4721560894       -5.0145171318  SOLV      6393            0.0000000000
     19294      6405  TIP3      OH2            29.3765671767       15.6114199457      -12.9968538807  SOLV      6394            0.0000000000
     19295      6405  TIP3      H1             29.4651367263       16.5741552150      -13.1644461527  SOLV      6394            0.0000000000
     19296      6405  TIP3      H2             30.2988751900       15.3081386176      -13.1431666664  SOLV      6394            0.0000000000
     19297      6406  TIP3      OH2            16.5877032523       13.2242579997        4.0452570776  SOLV      6395            0.0000000000
     19298      6406  TIP3      H1             15.9007164154       13.0389786271        3.3698780633  SOLV      6395            0.0000000000
     19299      6406  TIP3      H2             16.9644378053       12.3396395476        4.2224052122  SOLV      6395            0.0000000000
     19300      6407  TIP3      OH2            15.1449524172       15.1462869766        0.3485374119  SOLV      6396            0.0000000000
     19301      6407  TIP3      H1             16.1070013940       15.0988129951        0.2669060313  SOLV      6396            0.0000000000
     19302      6407  TIP3      H2             15.0365870098       15.9288958139        0.9102943404  SOLV      6396            0.0000000000
     19303      6408  TIP3      OH2            33.7699786950       19.7215316921        0.9077000881  SOLV      6397            0.0000000000
     19304      6408  TIP3      H1             33.7686840874       18.7555073565        1.0486158670  SOLV      6397            0.0000000000
     19305      6408  TIP3      H2             32.9327484319       19.9606043188        1.3686439056  SOLV      6397            0.0000000000
     19306      6409  TIP3      OH2            24.8327528424       17.4939057987        2.2891211978  SOLV      6398            0.0000000000
     19307      6409  TIP3      H1             24.7898108537       18.4251766050        2.5972332675  SOLV      6398            0.0000000000
     19308      6409  TIP3      H2             24.1133166329       17.0907460968        2.8248221027  SOLV      6398            0.0000000000
     19309      6410  TIP3      OH2            22.4981989349       18.7760912953       -8.2075004025  SOLV      6399            0.0000000000
     19310      6410  TIP3      H1             22.0039890642       18.5988279506       -9.0269262470  SOLV      6399            0.0000000000
     19311      6410  TIP3      H2             22.1342955957       19.6343122130       -7.9202806166  SOLV      6399            0.0000000000
     19312      6411  TIP3      OH2            16.8478813011       17.2688988882       -4.3398446269  SOLV      6400            0.0000000000
     19313      6411  TIP3      H1             17.2933580391       17.1824195627       -3.4681564205  SOLV      6400            0.0000000000
     19314      6411  TIP3      H2             16.3683670191       16.4213275280       -4.3883278344  SOLV      6400            0.0000000000
     19315      6412  TIP3      OH2            24.4536406107       17.8212219129      -11.8337966210  SOLV      6401            0.0000000000
     19316      6412  TIP3      H1             25.0359663813       17.1135865203      -12.1905184938  SOLV      6401            0.0000000000
     19317      6412  TIP3      H2             24.8110255112       17.9242528395      -10.9265327498  SOLV      6401            0.0000000000
     19318      6413  TIP3      OH2            24.9992371069       18.3029246234       -9.1423748963  SOLV      6402            0.0000000000
     19319      6413  TIP3      H1             24.1130078046       18.3979524174       -8.7265663033  SOLV      6402            0.0000000000
     19320      6413  TIP3      H2             25.5063134628       17.9159042966       -8.4102479920  SOLV      6402            0.0000000000
     19321      6414  TIP3      OH2            32.6322050580       10.9377612686        3.6988486601  SOLV      6403            0.0000000000
     19322      6414  TIP3      H1             31.8129413784       11.0341366216        3.1896226759  SOLV      6403            0.0000000000
     19323      6414  TIP3      H2             32.8092232952        9.9791748998        3.5968712741  SOLV      6403            0.0000000000
     19324      6415  TIP3      OH2            18.6272582814       15.0447245873        3.8521455890  SOLV      6404            0.0000000000
     19325      6415  TIP3      H1             19.1116083309       14.8836817856        4.6867667481  SOLV      6404            0.0000000000
     19326      6415  TIP3      H2             17.8762042365       14.4200175261        3.9374526233  SOLV      6404            0.0000000000
     19327      6416  TIP3      OH2            22.6292345820        3.2637816625        1.8106393325  SOLV      6405            0.0000000000
     19328      6416  TIP3      H1             21.7485843771        2.9756644099        1.4937357359  SOLV      6405            0.0000000000
     19329      6416  TIP3      H2             22.3658577519        4.0728754836        2.2927560582  SOLV      6405            0.0000000000
     19330      6417  TIP3      OH2            27.9980452129        4.4124238201        3.7344924771  SOLV      6406            0.0000000000
     19331      6417  TIP3      H1             28.6820036742        4.1201855972        4.3707698350  SOLV      6406            0.0000000000
     19332      6417  TIP3      H2             27.1623577567        4.2206293880        4.2069612646  SOLV      6406            0.0000000000
     19333      6418  TIP3      OH2            30.3232514695        8.7040366151        2.8929631410  SOLV      6407            0.0000000000
     19334      6418  TIP3      H1             29.8053848508        8.7013977472        3.7296135472  SOLV      6407            0.0000000000
     19335      6418  TIP3      H2             30.1091138752        9.5785853551        2.5149634926  SOLV      6407            0.0000000000
     19336      6419  TIP3      OH2            26.9773878037        9.9956581382      -11.5184968519  SOLV      6408            0.0000000000
     19337      6419  TIP3      H1             26.5917160001        9.7775309398      -12.3887771370  SOLV      6408            0.0000000000
     19338      6419  TIP3      H2             27.8356368930       10.3783260301      -11.7885500596  SOLV      6408            0.0000000000
     19339      6420  TIP3      OH2            24.0763270419        3.7238485513       -8.4941179721  SOLV      6409            0.0000000000
     19340      6420  TIP3      H1             23.6917611473        3.6778879319       -7.5973524086  SOLV      6409            0.0000000000
     19341      6420  TIP3      H2             23.6641539948        2.9290869353       -8.8874167036  SOLV      6409            0.0000000000
     19342      6421  TIP3      OH2            21.9553379238        8.4370984665        1.9613672384  SOLV      6410            0.0000000000
     19343      6421  TIP3      H1             21.4463108650        8.6457535137        2.7726071841  SOLV      6410            0.0000000000
     19344      6421  TIP3      H2             21.8038295109        9.2538800322        1.4333473838  SOLV      6410            0.0000000000
     19345      6422  TIP3      OH2            20.8199542375        7.3029631072       -2.8952842671  SOLV      6411            0.0000000000
     19346      6422  TIP3      H1             19.8781446522        7.1007778971       -2.7256350307  SOLV      6411            0.0000000000
     19347      6422  TIP3      H2             20.9236954848        6.9078965007       -3.7914927545  SOLV      6411            0.0000000000
     19348      6423  TIP3      OH2            25.6987850242        8.1389896259       -5.5925031744  SOLV      6412            0.0000000000
     19349      6423  TIP3      H1             25.2054749380        8.8530180421       -6.0517818137  SOLV      6412            0.0000000000
     19350      6423  TIP3      H2             26.2549375740        7.7890612193       -6.3194940757  SOLV      6412            0.0000000000
     19351      6424  TIP3      OH2            27.4257417247       10.9338156156        5.2969546433  SOLV      6413            0.0000000000
     19352      6424  TIP3      H1             27.2014198091       10.1801265523        5.8851309455  SOLV      6413            0.0000000000
     19353      6424  TIP3      H2             28.3804769122       11.0177980506        5.4741629402  SOLV      6413            0.0000000000
     19354      6425  TIP3      OH2            27.2372756418        8.4038263436       -3.2518367768  SOLV      6414            0.0000000000
     19355      6425  TIP3      H1             26.6093775732        8.6736665236       -3.9544999724  SOLV      6414            0.0000000000
     19356      6425  TIP3      H2             27.6156082491        7.6215958224       -3.7083291672  SOLV      6414            0.0000000000
     19357      6426  TIP3      OH2            20.1599202009        8.7143418171        4.0311899595  SOLV      6415            0.0000000000
     19358      6426  TIP3      H1             20.4173009883        9.3754670457        4.6913233321  SOLV      6415            0.0000000000
     19359      6426  TIP3      H2             20.0424411137        7.9101337597        4.5732943717  SOLV      6415            0.0000000000
     19360      6427  TIP3      OH2            20.6690722522        3.5054020041       -8.8505830844  SOLV      6416            0.0000000000
     19361      6427  TIP3      H1             20.5072364248        3.5058107108       -7.8888752936  SOLV      6416            0.0000000000
     19362      6427  TIP3      H2             19.8810205052        3.9945616257       -9.1651535096  SOLV      6416            0.0000000000
     19363      6428  TIP3      OH2            16.2306194238        3.8336876204       -0.2905042860  SOLV      6417            0.0000000000
     19364      6428  TIP3      H1             16.6293874617        4.2275880971        0.5124170106  SOLV      6417            0.0000000000
     19365      6428  TIP3      H2             16.9465067155        3.9750347322       -0.9169356673  SOLV      6417            0.0000000000
     19366      6429  TIP3      OH2            27.3861782024       10.8496739140        0.9640146521  SOLV      6418            0.0000000000
     19367      6429  TIP3      H1             27.7026973484       10.1356551590        0.3616196674  SOLV      6418            0.0000000000
     19368      6429  TIP3      H2             27.0430067839       10.3057095219        1.7054797657  SOLV      6418            0.0000000000
     19369      6430  TIP3      OH2            24.1411225429        5.4683388840       -2.3022692229  SOLV      6419            0.0000000000
     19370      6430  TIP3      H1             23.3234070209        5.4766942125       -1.7668869232  SOLV      6419            0.0000000000
     19371      6430  TIP3      H2             24.8319647433        5.4525218194       -1.6187252621  SOLV      6419            0.0000000000
     19372      6431  TIP3      OH2            18.3904089766        6.0994496021       -2.2167975864  SOLV      6420            0.0000000000
     19373      6431  TIP3      H1             17.4622831236        6.1689820821       -2.5420246448  SOLV      6420            0.0000000000
     19374      6431  TIP3      H2             18.6827530411        5.2278565855       -2.5419710695  SOLV      6420            0.0000000000
     19375      6432  TIP3      OH2            21.0378544070        6.0266716227       -5.3011205993  SOLV      6421            0.0000000000
     19376      6432  TIP3      H1             21.9723516385        6.1699574235       -5.5430219716  SOLV      6421            0.0000000000
     19377      6432  TIP3      H2             20.5602943961        6.2333583628       -6.1407387373  SOLV      6421            0.0000000000
     19378      6433  TIP3      OH2            28.9964530026        6.2662827833       -0.2444788911  SOLV      6422            0.0000000000
     19379      6433  TIP3      H1             28.6636026864        6.4097646798        0.6693876332  SOLV      6422            0.0000000000
     19380      6433  TIP3      H2             28.3097239217        5.6693156082       -0.5916499739  SOLV      6422            0.0000000000
     19381      6434  TIP3      OH2            19.6194767709        6.3753473589       -7.5722250768  SOLV      6423            0.0000000000
     19382      6434  TIP3      H1             18.9256397413        5.9444411275       -8.1070398415  SOLV      6423            0.0000000000
     19383      6434  TIP3      H2             20.1601638962        6.7669523789       -8.2906497909  SOLV      6423            0.0000000000
     19384      6435  TIP3      OH2            30.7375148465       23.1532179602        1.9309159659  SOLV      6424            0.0000000000
     19385      6435  TIP3      H1             30.7047198394       23.4141191397        0.9920906664  SOLV      6424            0.0000000000
     19386      6435  TIP3      H2             31.4504547883       23.7180478005        2.2698129474  SOLV      6424            0.0000000000
     19387      6436  TIP3      OH2            20.2241885808       14.2581541813        6.0769055334  SOLV      6425            0.0000000000
     19388      6436  TIP3      H1             21.0091013597       14.6032545038        6.5498225580  SOLV      6425            0.0000000000
     19389      6436  TIP3      H2             19.5810765529       14.2377848208        6.8134104761  SOLV      6425            0.0000000000
     19390      6437  TIP3      OH2            24.8861992361        8.8070401958       -1.3366283397  SOLV      6426            0.0000000000
     19391      6437  TIP3      H1             25.6383778835        8.4512650314       -1.8348206707  SOLV      6426            0.0000000000
     19392      6437  TIP3      H2             24.9582032422        8.3434180367       -0.4832832681  SOLV      6426            0.0000000000
     19393      6438  TIP3      OH2            20.0232557837        3.6898752378       -2.5231547482  SOLV      6427            0.0000000000
     19394      6438  TIP3      H1             19.7593302391        2.8800151944       -2.0387608484  SOLV      6427            0.0000000000
     19395      6438  TIP3      H2             20.4700745224        3.3249540353       -3.3012203318  SOLV      6427            0.0000000000
     19396      6439  TIP3      OH2            24.6463873366        7.7959028606        1.5998791922  SOLV      6428            0.0000000000
     19397      6439  TIP3      H1             23.7428999590        8.1550502210        1.7125613662  SOLV      6428            0.0000000000
     19398      6439  TIP3      H2             25.2028139779        8.4466850851        2.0696896002  SOLV      6428            0.0000000000
     19399      6440  TIP3      OH2            22.0197758225       11.6713196148       -7.4726708995  SOLV      6429            0.0000000000
     19400      6440  TIP3      H1             21.3100068153       11.0022140102       -7.5934777486  SOLV      6429            0.0000000000
     19401      6440  TIP3      H2             21.8031700817       12.0084333693       -6.5684478398  SOLV      6429            0.0000000000
     19402      6441  TIP3      OH2            30.9923909735       14.0336831491       -1.2211784488  SOLV      6430            0.0000000000
     19403      6441  TIP3      H1             31.2278950011       14.5494889293       -2.0205914679  SOLV      6430            0.0000000000
     19404      6441  TIP3      H2             30.1553446106       13.5954005374       -1.4955871006  SOLV      6430            0.0000000000
     19405      6442  TIP3      OH2            26.6056333418        4.7079349562       -8.6947810063  SOLV      6431            0.0000000000
     19406      6442  TIP3      H1             25.6371639529        4.5195539132       -8.6857232438  SOLV      6431            0.0000000000
     19407      6442  TIP3      H2             26.6479279885        5.6723520796       -8.5461571081  SOLV      6431            0.0000000000
     19408      6443  TIP3      OH2            26.0086240636       14.8638365061        2.4890042415  SOLV      6432            0.0000000000
     19409      6443  TIP3      H1             26.2518292843       14.6686521371        3.4005510373  SOLV      6432            0.0000000000
     19410      6443  TIP3      H2             25.6184055074       15.7532631655        2.5515739319  SOLV      6432            0.0000000000
     19411      6444  TIP3      OH2            27.2651130961        7.3012695712       -7.7564636654  SOLV      6433            0.0000000000
     19412      6444  TIP3      H1             28.2332009500        7.3551151989       -7.6467729457  SOLV      6433            0.0000000000
     19413      6444  TIP3      H2             27.0668067016        8.0884756993       -8.3004819875  SOLV      6433            0.0000000000
     19414      6445  TIP3      OH2            18.9710168297       11.9294922012       -0.7422454902  SOLV      6434            0.0000000000
     19415      6445  TIP3      H1             19.3334410328       11.6295439981       -1.6016210082  SOLV      6434            0.0000000000
     19416      6445  TIP3      H2             19.4185582830       11.3352153339       -0.1221180001  SOLV      6434            0.0000000000
     19417      6446  TIP3      OH2            23.4837161974       13.1630434543       -9.2237338338  SOLV      6435            0.0000000000
     19418      6446  TIP3      H1             22.9856574932       14.0139202959       -9.2033305434  SOLV      6435            0.0000000000
     19419      6446  TIP3      H2             22.9405687746       12.6139355768       -8.6163522488  SOLV      6435            0.0000000000
     19420      6447  TIP3      OH2            17.7917690185       11.0653551181        5.4079247144  SOLV      6436            0.0000000000
     19421      6447  TIP3      H1             17.9295036146       10.9263817626        6.3653888132  SOLV      6436            0.0000000000
     19422      6447  TIP3      H2             17.0702790370       10.4387238611        5.2241001093  SOLV      6436            0.0000000000
     19423      6448  TIP3      OH2            25.0276828738       12.4002030849        5.4424453633  SOLV      6437            0.0000000000
     19424      6448  TIP3      H1             24.4126760285       11.7124751924        5.1451146275  SOLV      6437            0.0000000000
     19425      6448  TIP3      H2             25.8866593247       11.9444603938        5.3404648746  SOLV      6437            0.0000000000
     19426      6449  TIP3      OH2            27.5999199062       17.4539335154        1.4852556444  SOLV      6438            0.0000000000
     19427      6449  TIP3      H1             26.6353889932       17.4406338774        1.6172552250  SOLV      6438            0.0000000000
     19428      6449  TIP3      H2             27.8812303763       17.9867788421        2.2582686466  SOLV      6438            0.0000000000
     19429      6450  TIP3      OH2            31.6579763977        8.2281532658       -9.4548019041  SOLV      6439            0.0000000000
     19430      6450  TIP3      H1             31.0405814327        7.7915714727      -10.0915761422  SOLV      6439            0.0000000000
     19431      6450  TIP3      H2             31.6281954547        9.1258667224       -9.8556845805  SOLV      6439            0.0000000000
     19432      6451  TIP3      OH2            33.9206470102       16.8144813347        1.3185547797  SOLV      6440            0.0000000000
     19433      6451  TIP3      H1             32.9447102313       16.7309739079        1.2349884274  SOLV      6440            0.0000000000
     19434      6451  TIP3      H2             34.1901064538       16.4968808109        0.4267813485  SOLV      6440            0.0000000000
     19435      6452  TIP3      OH2            28.7157136293       16.3528456927      -10.3586399118  SOLV      6441            0.0000000000
     19436      6452  TIP3      H1             28.4390989955       15.6399087510       -9.7668028395  SOLV      6441            0.0000000000
     19437      6452  TIP3      H2             28.8509724738       15.8940519093      -11.2080412327  SOLV      6441            0.0000000000
     19438      6453  TIP3      OH2            28.6741401405       12.6667044890       -2.0472825121  SOLV      6442            0.0000000000
     19439      6453  TIP3      H1             27.7341067766       12.4356035907       -1.9112701944  SOLV      6442            0.0000000000
     19440      6453  TIP3      H2             28.9918877673       11.8566596960       -2.4952613103  SOLV      6442            0.0000000000
     19441      6454  TIP3      OH2            19.9876968839       14.9734810443       -4.4360124380  SOLV      6443            0.0000000000
     19442      6454  TIP3      H1             19.9269993698       15.7658260750       -5.0038100709  SOLV      6443            0.0000000000
     19443      6454  TIP3      H2             19.0588355427       14.7330340024       -4.3436879128  SOLV      6443            0.0000000000
     19444      6455  TIP3      OH2            15.4820790894        8.1672711682       -7.6760243246  SOLV      6444            0.0000000000
     19445      6455  TIP3      H1             15.9928560010        8.8890612504       -7.2721159867  SOLV      6444            0.0000000000
     19446      6455  TIP3      H2             14.8382241105        7.9747876247       -6.9569688927  SOLV      6444            0.0000000000
     19447      6456  TIP3      OH2            21.2575354563       12.5691377286       -5.0502173814  SOLV      6445            0.0000000000
     19448      6456  TIP3      H1             20.9452156502       13.4711083357       -4.8419799814  SOLV      6445            0.0000000000
     19449      6456  TIP3      H2             20.9088590686       12.0595177265       -4.2961488290  SOLV      6445            0.0000000000
     19450      6457  TIP3      OH2            22.6780487312       18.3673548294        0.2067114718  SOLV      6446            0.0000000000
     19451      6457  TIP3      H1             23.1074706946       19.0932977196       -0.2923893799  SOLV      6446            0.0000000000
     19452      6457  TIP3      H2             23.4395975698       17.9807067891        0.6673017006  SOLV      6446            0.0000000000
     19453      6458  TIP3      OH2            19.1243863926       17.3478384225       -5.9632070550  SOLV      6447            0.0000000000
     19454      6458  TIP3      H1             18.2789411487       17.4304358357       -5.4774336109  SOLV      6447            0.0000000000
     19455      6458  TIP3      H2             19.4464661499       18.2756164178       -5.9319227503  SOLV      6447            0.0000000000
     19456      6459  TIP3      OH2            26.4939645419       14.7172286217       -0.1838558609  SOLV      6448            0.0000000000
     19457      6459  TIP3      H1             26.3900076361       14.7005119894        0.7950076531  SOLV      6448            0.0000000000
     19458      6459  TIP3      H2             27.2817998863       14.1699652968       -0.3019837994  SOLV      6448            0.0000000000
     19459      6460  TIP3      OH2            26.3199888430       13.7045432808      -11.3373889710  SOLV      6449            0.0000000000
     19460      6460  TIP3      H1             26.8498432157       13.4413365734      -10.5503126164  SOLV      6449            0.0000000000
     19461      6460  TIP3      H2             25.4479841584       13.3610286494      -11.0893507125  SOLV      6449            0.0000000000
     19462      6461  TIP3      OH2            29.0070514402       20.0120362450        0.2987820060  SOLV      6450            0.0000000000
     19463      6461  TIP3      H1             28.1926687008       19.4734618877        0.2466398931  SOLV      6450            0.0000000000
     19464      6461  TIP3      H2             28.8435892807       20.6615109396       -0.4208356002  SOLV      6450            0.0000000000
     19465      6462  TIP3      OH2            29.6626991821       18.3748255830      -13.1702302296  SOLV      6451            0.0000000000
     19466      6462  TIP3      H1             29.9698762272       19.1158827969      -13.7172950631  SOLV      6451            0.0000000000
     19467      6462  TIP3      H2             28.8505049883       18.7820725029      -12.8036491974  SOLV      6451            0.0000000000
     19468      6463  TIP3      OH2            19.8240702190        6.1426850858        5.4579965154  SOLV      6452            0.0000000000
     19469      6463  TIP3      H1             18.8546923931        6.1825087879        5.5728347915  SOLV      6452            0.0000000000
     19470      6463  TIP3      H2             20.0897541647        5.5890190951        6.2093566203  SOLV      6452            0.0000000000
     19471      6464  TIP3      OH2            27.9280072174       13.0305380788       -9.1797128876  SOLV      6453            0.0000000000
     19472      6464  TIP3      H1             27.8044695259       12.3409251506       -8.4965995089  SOLV      6453            0.0000000000
     19473      6464  TIP3      H2             28.8962805564       12.9551202845       -9.3215069045  SOLV      6453            0.0000000000
     19474      6465  TIP3      OH2            17.0462542541       16.9711707708        1.7839585635  SOLV      6454            0.0000000000
     19475      6465  TIP3      H1             17.5926062398       16.2572863963        2.1534742542  SOLV      6454            0.0000000000
     19476      6465  TIP3      H2             17.2964411430       17.7118262925        2.3508149964  SOLV      6454            0.0000000000
     19477      6466  TIP3      OH2            19.9046354884       13.4548649312      -11.3478154054  SOLV      6455            0.0000000000
     19478      6466  TIP3      H1             20.0375886966       12.5252992525      -11.6125376299  SOLV      6455            0.0000000000
     19479      6466  TIP3      H2             19.6890641715       13.3527186640      -10.3992502609  SOLV      6455            0.0000000000
     19480      6467  TIP3      OH2            19.3482240630       13.5171732133       -8.6278912747  SOLV      6456            0.0000000000
     19481      6467  TIP3      H1             20.1125075860       13.2222789673       -8.1126441474  SOLV      6456            0.0000000000
     19482      6467  TIP3      H2             19.4063294405       14.4945331106       -8.5382809050  SOLV      6456            0.0000000000
     19483      6468  TIP3      OH2            16.7746784227       10.4888272450       -6.5240293791  SOLV      6457            0.0000000000
     19484      6468  TIP3      H1             16.0518136291       10.8870898047       -5.9950987068  SOLV      6457            0.0000000000
     19485      6468  TIP3      H2             16.8433662500       11.1466700430       -7.2427329858  SOLV      6457            0.0000000000
     19486      6469  TIP3      OH2            28.2588574410        6.7986029123        2.3585037838  SOLV      6458            0.0000000000
     19487      6469  TIP3      H1             29.0893626472        7.1729651562        2.6964833666  SOLV      6458            0.0000000000
     19488      6469  TIP3      H2             28.1518301897        5.9834549344        2.8947621651  SOLV      6458            0.0000000000
     19489      6470  TIP3      OH2            27.0616446908        4.2467038424       -5.9442220316  SOLV      6459            0.0000000000
     19490      6470  TIP3      H1             26.9057385416        4.4287722843       -6.8942983200  SOLV      6459            0.0000000000
     19491      6470  TIP3      H2             27.4429146668        5.0965404816       -5.6371221981  SOLV      6459            0.0000000000
     19492      6471  TIP3      OH2            22.0623623674       15.4560740945       -9.1522542302  SOLV      6460            0.0000000000
     19493      6471  TIP3      H1             21.1923601290       15.7001793979       -8.7794349940  SOLV      6460            0.0000000000
     19494      6471  TIP3      H2             22.1915646780       16.1845306989       -9.7767384238  SOLV      6460            0.0000000000
     19495      6472  TIP3      OH2            23.8936674524        6.1280170572       -4.9887970591  SOLV      6461            0.0000000000
     19496      6472  TIP3      H1             24.5290776892        6.8533841489       -5.1729701613  SOLV      6461            0.0000000000
     19497      6472  TIP3      H2             23.9753547486        6.0437181839       -4.0156698693  SOLV      6461            0.0000000000
     19498      6473  TIP3      OH2            26.6345106164        9.2714351548        3.0462239296  SOLV      6462            0.0000000000
     19499      6473  TIP3      H1             26.8746132515        9.7713929991        3.8494065673  SOLV      6462            0.0000000000
     19500      6473  TIP3      H2             27.1471785054        8.4486208531        3.1390239864  SOLV      6462            0.0000000000
     19501      6474  TIP3      OH2            25.3167587928        3.2885830749       -4.0048025892  SOLV      6463            0.0000000000
     19502      6474  TIP3      H1             25.1902723657        4.0933406365       -3.4683536993  SOLV      6463            0.0000000000
     19503      6474  TIP3      H2             25.9605808923        3.6190594910       -4.6758074716  SOLV      6463            0.0000000000
     19504      6475  TIP3      OH2            19.5399117160       16.2454589171       -8.4510930331  SOLV      6464            0.0000000000
     19505      6475  TIP3      H1             19.2113310514       16.9441050495       -9.0572100188  SOLV      6464            0.0000000000
     19506      6475  TIP3      H2             19.3576463829       16.6504621545       -7.5739870801  SOLV      6464            0.0000000000
     19507      6476  TIP3      OH2            20.4854094027        3.3837620845       -6.0549254252  SOLV      6465            0.0000000000
     19508      6476  TIP3      H1             20.4814458160        4.3076595621       -5.7368000527  SOLV      6465            0.0000000000
     19509      6476  TIP3      H2             21.4499095439        3.2076862073       -6.0231615870  SOLV      6465            0.0000000000
     19510      6477  TIP3      OH2            32.9922235487        8.2871648522        2.9459126757  SOLV      6466            0.0000000000
     19511      6477  TIP3      H1             32.0096624179        8.2414110671        2.9612943062  SOLV      6466            0.0000000000
     19512      6477  TIP3      H2             33.1666576679        7.9545982988        2.0542319796  SOLV      6466            0.0000000000
     19513      6478  TIP3      OH2            29.5189632799       10.2201948888       -3.2393799807  SOLV      6467            0.0000000000
     19514      6478  TIP3      H1             28.7572299549        9.6231693130       -3.1338819295  SOLV      6467            0.0000000000
     19515      6478  TIP3      H2             30.2281212736        9.7418763672       -2.7581916803  SOLV      6467            0.0000000000
     19516      6479  TIP3      OH2            16.6935667967       12.4584326998       -8.5637060903  SOLV      6468            0.0000000000
     19517      6479  TIP3      H1             17.4436460454       13.0775148395       -8.4729772523  SOLV      6468            0.0000000000
     19518      6479  TIP3      H2             17.0828368392       11.8518115488       -9.2331172130  SOLV      6468            0.0000000000
     19519      6480  TIP3      OH2            29.2303340292       19.8177069569       -3.7727335375  SOLV      6469            0.0000000000
     19520      6480  TIP3      H1             28.7929527764       20.2978241150       -4.5127421372  SOLV      6469            0.0000000000
     19521      6480  TIP3      H2             30.1724148835       20.0014306024       -3.9885775397  SOLV      6469            0.0000000000
     19522      6481  TIP3      OH2            19.9599437493        2.4885137627        1.4854218118  SOLV      6470            0.0000000000
     19523      6481  TIP3      H1             19.6764400378        2.1253792158        0.6210984781  SOLV      6470            0.0000000000
     19524      6481  TIP3      H2             19.8819764378        1.7072884746        2.0705134510  SOLV      6470            0.0000000000
     19525      6482  TIP3      OH2            15.3445803463       14.6863987096       -4.7342842325  SOLV      6471            0.0000000000
     19526      6482  TIP3      H1             14.7120332192       14.9531779909       -4.0526432229  SOLV      6471            0.0000000000
     19527      6482  TIP3      H2             14.9601656638       15.1137542913       -5.5382844215  SOLV      6471            0.0000000000
     19528      6483  TIP3      OH2            16.9741799130       20.1623569834        6.0332821978  SOLV      6472            0.0000000000
     19529      6483  TIP3      H1             17.8381418717       20.1683527626        6.5031371586  SOLV      6472            0.0000000000
     19530      6483  TIP3      H2             16.7816790487       19.2097683091        6.0214672804  SOLV      6472            0.0000000000
     19531      6484  TIP3      OH2            21.7179995096       19.6866837974        6.4636290440  SOLV      6473            0.0000000000
     19532      6484  TIP3      H1             22.6675355665       19.5107090268        6.5021416788  SOLV      6473            0.0000000000
     19533      6484  TIP3      H2             21.4422018924       19.0510357228        5.7716106279  SOLV      6473            0.0000000000
     19534      6485  TIP3      OH2            21.5583880614       15.4585722354      -12.2594583311  SOLV      6474            0.0000000000
     19535      6485  TIP3      H1             21.0084237537       14.7316456720      -11.8825170566  SOLV      6474            0.0000000000
     19536      6485  TIP3      H2             22.3197522257       14.9516559930      -12.5962572772  SOLV      6474            0.0000000000
     19537      6486  TIP3      OH2            28.1350175695       18.8064729428        3.8337321181  SOLV      6475            0.0000000000
     19538      6486  TIP3      H1             28.0679143709       18.1238291901        4.5398045186  SOLV      6475            0.0000000000
     19539      6486  TIP3      H2             28.9269029887       19.3067223123        4.1107247178  SOLV      6475            0.0000000000
     19540      6487  TIP3      OH2            25.9026763344       15.8470083394      -13.1027130201  SOLV      6476            0.0000000000
     19541      6487  TIP3      H1             26.2913718410       15.1884100523      -12.4921909953  SOLV      6476            0.0000000000
     19542      6487  TIP3      H2             26.4803505712       15.7808019807      -13.8879736514  SOLV      6476            0.0000000000
     19543      6488  TIP3      OH2            18.2404544784       14.1458245153        8.0236968144  SOLV      6477            0.0000000000
     19544      6488  TIP3      H1             18.3715385472       13.1821787261        8.0951052063  SOLV      6477            0.0000000000
     19545      6488  TIP3      H2             17.3689297705       14.1930266196        7.5727672594  SOLV      6477            0.0000000000
     19546      6489  TIP3      OH2            18.0217605568       10.6241485349      -10.0211031303  SOLV      6478            0.0000000000
     19547      6489  TIP3      H1             18.5609072911       10.2837675053       -9.2864281023  SOLV      6478            0.0000000000
     19548      6489  TIP3      H2             18.7027713907       10.6752150781      -10.7277845915  SOLV      6478            0.0000000000
     19549      6490  TIP3      OH2            24.2946629122       15.0702464317        5.8130386262  SOLV      6479            0.0000000000
     19550      6490  TIP3      H1             23.8813821968       15.3021562831        4.9542181166  SOLV      6479            0.0000000000
     19551      6490  TIP3      H2             24.5795234476       14.1403580336        5.6595445485  SOLV      6479            0.0000000000
     19552      6491  TIP3      OH2            23.2063415720       12.6524808313      -11.9196267567  SOLV      6480            0.0000000000
     19553      6491  TIP3      H1             23.2130364435       12.7464948761      -10.9454414246  SOLV      6480            0.0000000000
     19554      6491  TIP3      H2             23.2204221212       11.6728178834      -12.0038673834  SOLV      6480            0.0000000000
     19555      6492  TIP3      OH2            29.2451962494       15.1539232804        1.8797927726  SOLV      6481            0.0000000000
     19556      6492  TIP3      H1             30.0072742496       15.5634446727        1.4275397321  SOLV      6481            0.0000000000
     19557      6492  TIP3      H2             28.5509926296       15.8188297536        1.6991368027  SOLV      6481            0.0000000000
     19558      6493  TIP3      OH2            19.4442690793       11.5108064588        7.8767420516  SOLV      6482            0.0000000000
     19559      6493  TIP3      H1             20.2488530678       11.0824952480        7.5605366543  SOLV      6482            0.0000000000
     19560      6493  TIP3      H2             19.7236446255       11.8258910545        8.7622940035  SOLV      6482            0.0000000000
     19561      6494  TIP3      OH2            20.1044589602        9.7135930984       -7.8142353545  SOLV      6483            0.0000000000
     19562      6494  TIP3      H1             19.7798413408        9.2728804806       -7.0146362478  SOLV      6483            0.0000000000
     19563      6494  TIP3      H2             20.4861320521        8.9665799050       -8.3225546273  SOLV      6483            0.0000000000
     19564      6495  TIP3      OH2            22.8233484270       10.3298128269        4.4937534130  SOLV      6484            0.0000000000
     19565      6495  TIP3      H1             22.0297570529       10.9076624849        4.4840850857  SOLV      6484            0.0000000000
     19566      6495  TIP3      H2             23.3258234948       10.6693324024        3.7157678626  SOLV      6484            0.0000000000
     19567      6496  TIP3      OH2            21.1487461152        7.6841255085       -9.4121843770  SOLV      6485            0.0000000000
     19568      6496  TIP3      H1             20.8896350128        7.7539294593      -10.3551338811  SOLV      6485            0.0000000000
     19569      6496  TIP3      H2             22.1261540617        7.6671723551       -9.4953799888  SOLV      6485            0.0000000000
     19570      6497  TIP3      OH2            28.0320008136       14.3970702028        5.8484428898  SOLV      6486            0.0000000000
     19571      6497  TIP3      H1             28.7200446926       14.0219656233        5.2824917840  SOLV      6486            0.0000000000
     19572      6497  TIP3      H2             27.7956758718       13.6517193401        6.4167446891  SOLV      6486            0.0000000000
     19573      6498  TIP3      OH2            29.2899546007       10.9154365843      -12.7121075690  SOLV      6487            0.0000000000
     19574      6498  TIP3      H1             29.1053794806       10.4839450370      -13.5711516796  SOLV      6487            0.0000000000
     19575      6498  TIP3      H2             28.9400732166       11.8143654057      -12.9175333418  SOLV      6487            0.0000000000
     19576      6499  TIP3      OH2            24.0873767942        8.2283683136        5.6525265402  SOLV      6488            0.0000000000
     19577      6499  TIP3      H1             24.0524719344        7.4443531697        5.0664883463  SOLV      6488            0.0000000000
     19578      6499  TIP3      H2             23.6197525975        8.9076518798        5.1145408903  SOLV      6488            0.0000000000
     19579      6500  TIP3      OH2            24.0591970541        6.0899230504        3.8220963389  SOLV      6489            0.0000000000
     19580      6500  TIP3      H1             24.3397033240        6.5196888031        2.9893775064  SOLV      6489            0.0000000000
     19581      6500  TIP3      H2             23.1223345549        5.8712998339        3.6268101986  SOLV      6489            0.0000000000
     19582      6501  TIP3      OH2            24.2520239003       11.3735951284        2.4892754388  SOLV      6490            0.0000000000
     19583      6501  TIP3      H1             25.1278887188       11.6048472657        2.1550981672  SOLV      6490            0.0000000000
     19584      6501  TIP3      H2             23.6831489163       12.0457290489        2.0555784286  SOLV      6490            0.0000000000
     19585      6502  TIP3      OH2            30.0927558097       11.1237572923        6.3535989295  SOLV      6491            0.0000000000
     19586      6502  TIP3      H1             30.5826510554       10.2871398007        6.3273269213  SOLV      6491            0.0000000000
     19587      6502  TIP3      H2             30.7331973787       11.7375270612        5.9646074042  SOLV      6491            0.0000000000
     19588      6503  TIP3      OH2            30.5100118728       13.6568611068        3.7269192208  SOLV      6492            0.0000000000
     19589      6503  TIP3      H1             29.9368768808       14.2069881824        3.1400306085  SOLV      6492            0.0000000000
     19590      6503  TIP3      H2             31.3889033138       13.8734203199        3.3413572599  SOLV      6492            0.0000000000
     19591      6504  TIP3      OH2            22.8969886568        9.2407664055        8.0223146304  SOLV      6493            0.0000000000
     19592      6504  TIP3      H1             22.1873490891        8.5986433681        8.2166876849  SOLV      6493            0.0000000000
     19593      6504  TIP3      H2             23.1600515323        8.9890468738        7.1177095222  SOLV      6493            0.0000000000
     19594      6505  TIP3      OH2            25.3711993278        3.7060468405        4.5299716789  SOLV      6494            0.0000000000
     19595      6505  TIP3      H1             24.8661179022        4.5115028823        4.2861100628  SOLV      6494            0.0000000000
     19596      6505  TIP3      H2             24.6927307791        3.0092299870        4.4141143519  SOLV      6494            0.0000000000
     19597      6506  TIP3      OH2            26.6305942196        8.6908482488        6.6393786011  SOLV      6495            0.0000000000
     19598      6506  TIP3      H1             26.3869907504        8.5262831601        7.5724947834  SOLV      6495            0.0000000000
     19599      6506  TIP3      H2             25.7631205768        8.4830582743        6.2248568728  SOLV      6495            0.0000000000
     19600      6507  TIP3      OH2            29.0304800342        8.3176100995        5.2304471702  SOLV      6496            0.0000000000
     19601      6507  TIP3      H1             28.2703116095        8.2799737484        5.8459320328  SOLV      6496            0.0000000000
     19602      6507  TIP3      H2             29.7647809903        7.9780454891        5.7819232800  SOLV      6496            0.0000000000
     19603      6508  TIP3      OH2            31.3160480573        7.6802673376        6.7210423938  SOLV      6497            0.0000000000
     19604      6508  TIP3      H1             31.4473724733        6.7161058584        6.8490713296  SOLV      6497            0.0000000000
     19605      6508  TIP3      H2             31.2911831036        8.0158491854        7.6394157622  SOLV      6497            0.0000000000
     19606      6509  TIP3      OH2            21.1907960401        7.0933848807        8.6082194037  SOLV      6498            0.0000000000
     19607      6509  TIP3      H1             21.2118258956        6.1707807608        8.2864621461  SOLV      6498            0.0000000000
     19608      6509  TIP3      H2             21.5574750261        6.9800709452        9.5086047616  SOLV      6498            0.0000000000
     19609      6510  TIP3      OH2            26.3017314235        3.8161168703        7.1082322829  SOLV      6499            0.0000000000
     19610      6510  TIP3      H1             26.9506764999        3.0872085944        7.0374670378  SOLV      6499            0.0000000000
     19611      6510  TIP3      H2             25.9030411352        3.7806165853        6.2143187343  SOLV      6499            0.0000000000
     19612      6511  TIP3      OH2            26.9702866586        5.9655492396        8.6742290550  SOLV      6500            0.0000000000
     19613      6511  TIP3      H1             26.7659994235        5.2429676762        8.0382403565  SOLV      6500            0.0000000000
     19614      6511  TIP3      H2             26.1938482416        6.5518845686        8.5708149040  SOLV      6500            0.0000000000
     19615      6512  TIP3      OH2            19.2221127433       18.3214100107      -10.3255770729  SOLV      6501            0.0000000000
     19616      6512  TIP3      H1             20.1666221974       18.1741141928      -10.5239380245  SOLV      6501            0.0000000000
     19617      6512  TIP3      H2             18.9531928645       18.7927825863      -11.1323518500  SOLV      6501            0.0000000000
     19618      6513  TIP3      OH2            13.9946305428       12.1044300455       -8.1787446775  SOLV      6502            0.0000000000
     19619      6513  TIP3      H1             14.9433585764       12.2992930143       -8.3436730098  SOLV      6502            0.0000000000
     19620      6513  TIP3      H2             13.9096119051       11.2228464418       -8.6039436392  SOLV      6502            0.0000000000
     19621      6514  TIP3      OH2            13.1676083445       18.1975410050       -4.0226137290  SOLV      6503            0.0000000000
     19622      6514  TIP3      H1             12.5109764132       17.5892173836       -4.4274019206  SOLV      6503            0.0000000000
     19623      6514  TIP3      H2             13.6026892175       17.5927355003       -3.3840347256  SOLV      6503            0.0000000000
     19624      6515  TIP3      OH2            14.4859809328       16.6427377984       -2.1528611785  SOLV      6504            0.0000000000
     19625      6515  TIP3      H1             14.3482732468       15.9469101999       -1.4879377803  SOLV      6504            0.0000000000
     19626      6515  TIP3      H2             15.0202160173       17.2715774074       -1.6351169214  SOLV      6504            0.0000000000
     19627      6516  TIP3      OH2            31.7965582930       20.6596344813       -4.1449335915  SOLV      6505            0.0000000000
     19628      6516  TIP3      H1             32.0649416397       21.0207975980       -3.2820105134  SOLV      6505            0.0000000000
     19629      6516  TIP3      H2             32.4382936443       21.0605940961       -4.7525776197  SOLV      6505            0.0000000000
     19630      6517  TIP3      OH2            32.0451923630       20.8838024051       -1.3180179720  SOLV      6506            0.0000000000
     19631      6517  TIP3      H1             31.5787693355       20.0234533974       -1.3865267505  SOLV      6506            0.0000000000
     19632      6517  TIP3      H2             32.7865616122       20.6190108786       -0.7514012626  SOLV      6506            0.0000000000
     19633      6518  TIP3      OH2            32.5484884721       17.6588913025        4.4119199943  SOLV      6507            0.0000000000
     19634      6518  TIP3      H1             31.8009587817       17.7752026105        5.0341032810  SOLV      6507            0.0000000000
     19635      6518  TIP3      H2             32.9745678978       18.5388003015        4.4378289169  SOLV      6507            0.0000000000
     19636      6519  TIP3      OH2            30.6906293611       12.7875724084       -9.4251630828  SOLV      6508            0.0000000000
     19637      6519  TIP3      H1             31.3472844483       13.4390224702       -9.7454163317  SOLV      6508            0.0000000000
     19638      6519  TIP3      H2             31.1582879118       12.4144364165       -8.6452550689  SOLV      6508            0.0000000000
     19639      6520  TIP3      OH2            31.9786133706       11.4539836094       -7.3894481457  SOLV      6509            0.0000000000
     19640      6520  TIP3      H1             31.3092008458       11.0609168514       -6.7874461433  SOLV      6509            0.0000000000
     19641      6520  TIP3      H2             32.6189255274       11.8604534097       -6.7702355820  SOLV      6509            0.0000000000
     19642      6521  TIP3      OH2            32.5770996793       15.4112481996       -3.0496038599  SOLV      6510            0.0000000000
     19643      6521  TIP3      H1             33.0453365042       14.7113246286       -3.5432035103  SOLV      6510            0.0000000000
     19644      6521  TIP3      H2             32.5280391800       16.1319721064       -3.7099339054  SOLV      6510            0.0000000000
     19645      6522  TIP3      OH2            30.7904002828       18.3937392080       -1.1195125952  SOLV      6511            0.0000000000
     19646      6522  TIP3      H1             30.0631452098       18.8203995225       -0.6256171078  SOLV      6511            0.0000000000
     19647      6522  TIP3      H2             30.3064408890       17.9494223043       -1.8500292449  SOLV      6511            0.0000000000
     19648      6523  TIP3      OH2            31.3356089709       10.5552927691      -10.9328417053  SOLV      6512            0.0000000000
     19649      6523  TIP3      H1             30.6189210197       10.5501601962      -11.6081990649  SOLV      6512            0.0000000000
     19650      6523  TIP3      H2             31.0358913307       11.3134085727      -10.3894674735  SOLV      6512            0.0000000000
     19651      6524  TIP3      OH2            30.0098772774        7.3039794855      -11.3851228411  SOLV      6513            0.0000000000
     19652      6524  TIP3      H1             29.6312787321        7.5847253528      -12.2257093077  SOLV      6513            0.0000000000
     19653      6524  TIP3      H2             29.7834548388        6.3462763130      -11.4018152982  SOLV      6513            0.0000000000
     19654      6525  TIP3      OH2            30.0820675767       10.0710783342       -5.9358066270  SOLV      6514            0.0000000000
     19655      6525  TIP3      H1             30.1473929471        9.1076272747       -6.0482475042  SOLV      6514            0.0000000000
     19656      6525  TIP3      H2             29.9284347811       10.1622428796       -4.9691855084  SOLV      6514            0.0000000000
     19657      6526  TIP3      OH2            16.3314819221       10.7409132253        1.5786220991  SOLV      6515            0.0000000000
     19658      6526  TIP3      H1             16.2998694810       10.4107691701        0.6550952902  SOLV      6515            0.0000000000
     19659      6526  TIP3      H2             17.3062995787       10.7650731304        1.7251689326  SOLV      6515            0.0000000000
     19660      6527  TIP3      OH2            32.9697595807       14.3255970971        2.6682904486  SOLV      6516            0.0000000000
     19661      6527  TIP3      H1             33.6747328555       13.6499710643        2.5536851727  SOLV      6516            0.0000000000
     19662      6527  TIP3      H2             33.1896802570       14.9735097031        1.9803971825  SOLV      6516            0.0000000000
     19663      6528  TIP3      OH2            34.7764571449       12.3201658946        2.7713535203  SOLV      6517            0.0000000000
     19664      6528  TIP3      H1             34.0248131554       11.8216881258        3.1604355466  SOLV      6517            0.0000000000
     19665      6528  TIP3      H2             35.4990011254       11.6739557226        2.9231678161  SOLV      6517            0.0000000000
     19666      6529  TIP3      OH2            29.4346799790        4.6617091936      -11.4622086494  SOLV      6518            0.0000000000
     19667      6529  TIP3      H1             30.1648428324        4.2596443523      -10.9593076621  SOLV      6518            0.0000000000
     19668      6529  TIP3      H2             28.7090623962        4.0196672189      -11.3796265340  SOLV      6518            0.0000000000
     19669      6530  TIP3      OH2            30.0868804276        7.2303295172       -7.0158781329  SOLV      6519            0.0000000000
     19670      6530  TIP3      H1             30.4933425512        6.3429563344       -6.8681193321  SOLV      6519            0.0000000000
     19671      6530  TIP3      H2             30.6419365927        7.5430266067       -7.7525757539  SOLV      6519            0.0000000000
     19672      6531  TIP3      OH2            31.6339046411        8.9023547432       -2.0099721466  SOLV      6520            0.0000000000
     19673      6531  TIP3      H1             32.4924532493        9.1372119690       -2.4316091911  SOLV      6520            0.0000000000
     19674      6531  TIP3      H2             31.7971638915        9.2755084234       -1.1238435162  SOLV      6520            0.0000000000
     19675      6532  TIP3      OH2            32.4053256554       10.3878111189        0.2844765187  SOLV      6521            0.0000000000
     19676      6532  TIP3      H1             31.6148227259       10.7334486428        0.7395795938  SOLV      6521            0.0000000000
     19677      6532  TIP3      H2             32.7244345840       11.1863833386       -0.1905627852  SOLV      6521            0.0000000000
     19678      6533  TIP3      OH2            18.5235802415        7.6047265856        8.2892322786  SOLV      6522            0.0000000000
     19679      6533  TIP3      H1             19.5023938650        7.5610930966        8.3332155825  SOLV      6522            0.0000000000
     19680      6533  TIP3      H2             18.2927510114        6.7328543993        8.6664741070  SOLV      6522            0.0000000000
     19681      6534  TIP3      OH2            36.7495474038        6.4542568938        5.9187885459  SOLV      6523            0.0000000000
     19682      6534  TIP3      H1             37.4230485895        5.8522387693        5.5266291189  SOLV      6523            0.0000000000
     19683      6534  TIP3      H2             36.4460114330        6.9399996374        5.1196144531  SOLV      6523            0.0000000000
     19684      6535  TIP3      OH2            31.1557547810        4.7247001361       -6.6058627806  SOLV      6524            0.0000000000
     19685      6535  TIP3      H1             31.6067416298        4.5569119419       -5.7544086446  SOLV      6524            0.0000000000
     19686      6535  TIP3      H2             30.5365051618        3.9662419540       -6.6357482016  SOLV      6524            0.0000000000
     19687      6536  TIP3      OH2            18.0883250165        4.5831347768        1.6138639840  SOLV      6525            0.0000000000
     19688      6536  TIP3      H1             18.7022717647        3.8245185910        1.6727974004  SOLV      6525            0.0000000000
     19689      6536  TIP3      H2             18.7193199875        5.3160515220        1.4993200563  SOLV      6525            0.0000000000
     19690      6537  TIP3      OH2            16.1369800585        7.2658343400        2.3044726472  SOLV      6526            0.0000000000
     19691      6537  TIP3      H1             16.6576643870        7.3076931859        1.4771541117  SOLV      6526            0.0000000000
     19692      6537  TIP3      H2             16.3535221239        8.1122010251        2.7137502148  SOLV      6526            0.0000000000
     19693      6538  TIP3      OH2            35.4840715696        7.6373024501        3.8542791006  SOLV      6527            0.0000000000
     19694      6538  TIP3      H1             34.6043618981        8.0683210703        3.9188734980  SOLV      6527            0.0000000000
     19695      6538  TIP3      H2             35.2358577548        6.8779542911        3.2880466078  SOLV      6527            0.0000000000
     19696      6539  TIP3      OH2            31.9768850259        4.0365411928      -10.2329134269  SOLV      6528            0.0000000000
     19697      6539  TIP3      H1             32.2155261314        3.2926688007      -10.8309486503  SOLV      6528            0.0000000000
     19698      6539  TIP3      H2             32.6674094096        4.6843105604      -10.4406495389  SOLV      6528            0.0000000000
     19699      6540  TIP3      OH2            27.5878362930       19.4093296054       -7.6080572887  SOLV      6529            0.0000000000
     19700      6540  TIP3      H1             28.0909100697       19.2842924311       -8.4409390347  SOLV      6529            0.0000000000
     19701      6540  TIP3      H2             28.1495117230       20.0419427787       -7.1353529177  SOLV      6529            0.0000000000
     19702      6541  TIP3      OH2            18.2142089558        3.0870504686        5.4536490763  SOLV      6530            0.0000000000
     19703      6541  TIP3      H1             17.7007051177        3.0753019284        6.2775205467  SOLV      6530            0.0000000000
     19704      6541  TIP3      H2             17.5686402402        3.4974233139        4.8433934890  SOLV      6530            0.0000000000
     19705      6542  TIP3      OH2            18.6066300897       17.4536825252        6.2009546691  SOLV      6531            0.0000000000
     19706      6542  TIP3      H1             17.6692802798       17.1982254453        6.1049772044  SOLV      6531            0.0000000000
     19707      6542  TIP3      H2             18.7775783652       17.2606390250        7.1313758674  SOLV      6531            0.0000000000
     19708      6543  TIP3      OH2            20.4209166237       17.7846961489        1.7108492941  SOLV      6532            0.0000000000
     19709      6543  TIP3      H1             19.9386974878       18.5422902184        1.3181593576  SOLV      6532            0.0000000000
     19710      6543  TIP3      H2             21.2781469321       17.9186358421        1.2572620199  SOLV      6532            0.0000000000
     19711      6544  TIP3      OH2            24.7885169819       20.1718750831        3.0662193470  SOLV      6533            0.0000000000
     19712      6544  TIP3      H1             25.2002960598       20.1674538835        3.9578277123  SOLV      6533            0.0000000000
     19713      6544  TIP3      H2             25.4451666839       20.7046570401        2.5685750928  SOLV      6533            0.0000000000
     19714      6545  TIP3      OH2            26.5973730748       21.7424787343        1.7257517387  SOLV      6534            0.0000000000
     19715      6545  TIP3      H1             27.2960261150       21.2374335425        1.2866034696  SOLV      6534            0.0000000000
     19716      6545  TIP3      H2             27.1295943832       22.3090042803        2.3268778899  SOLV      6534            0.0000000000
     19717      6546  TIP3      OH2            34.5370546176        5.2945370602        2.6979815782  SOLV      6535            0.0000000000
     19718      6546  TIP3      H1             33.6527178383        5.2244805093        2.2972540500  SOLV      6535            0.0000000000
     19719      6546  TIP3      H2             34.8777798453        4.3797111081        2.5592638098  SOLV      6535            0.0000000000
     19720      6547  TIP3      OH2            17.1401543677       20.3164042780        1.9630012183  SOLV      6536            0.0000000000
     19721      6547  TIP3      H1             16.2318199554       20.6257436562        1.7454453957  SOLV      6536            0.0000000000
     19722      6547  TIP3      H2             17.2827615514       20.7834640608        2.7969746126  SOLV      6536            0.0000000000
     19723      6548  TIP3      OH2            19.5130345128       20.1111025214        0.5606277432  SOLV      6537            0.0000000000
     19724      6548  TIP3      H1             18.6314092529       20.2234383306        0.9825208077  SOLV      6537            0.0000000000
     19725      6548  TIP3      H2             19.3292152395       20.4098801909       -0.3518531321  SOLV      6537            0.0000000000
     19726      6549  TIP3      OH2            23.7641004994       20.3502404984       -1.4632898165  SOLV      6538            0.0000000000
     19727      6549  TIP3      H1             23.0610490909       20.5150424408       -2.1179436299  SOLV      6538            0.0000000000
     19728      6549  TIP3      H2             23.8683458379       21.2353671989       -1.0566182183  SOLV      6538            0.0000000000
     19729      6550  TIP3      OH2            26.4627068678       19.7379343363       -0.9240532744  SOLV      6539            0.0000000000
     19730      6550  TIP3      H1             25.5283651838       19.9286865729       -1.1399461564  SOLV      6539            0.0000000000
     19731      6550  TIP3      H2             26.9228918710       20.4481782419       -1.4016675550  SOLV      6539            0.0000000000
     19732      6551  TIP3      OH2            28.4917543402       21.6370649689       -1.8401214755  SOLV      6540            0.0000000000
     19733      6551  TIP3      H1             28.3622514665       22.4845428873       -2.3195119078  SOLV      6540            0.0000000000
     19734      6551  TIP3      H2             28.7742637018       21.0417704411       -2.5698802727  SOLV      6540            0.0000000000
     19735      6552  TIP3      OH2            16.2604258619       18.2313205784       -0.6024288787  SOLV      6541            0.0000000000
     19736      6552  TIP3      H1             16.5286251029       17.9447758818        0.2969432729  SOLV      6541            0.0000000000
     19737      6552  TIP3      H2             16.9789312204       17.8004575424       -1.1192982699  SOLV      6541            0.0000000000
     19738      6553  TIP3      OH2            18.2217398620       16.9708587262       -1.9909974393  SOLV      6542            0.0000000000
     19739      6553  TIP3      H1             18.3657731483       16.1294941845       -1.4948248004  SOLV      6542            0.0000000000
     19740      6553  TIP3      H2             19.1378111565       17.3143517845       -2.0411391795  SOLV      6542            0.0000000000
     19741      6554  TIP3      OH2            20.9090721869       17.8795940616       -1.9494644109  SOLV      6543            0.0000000000
     19742      6554  TIP3      H1             21.1931013112       16.9520779187       -2.0602070653  SOLV      6543            0.0000000000
     19743      6554  TIP3      H2             21.3959782060       18.0989647599       -1.1317947174  SOLV      6543            0.0000000000
     19744      6555  TIP3      OH2            26.6615862692        4.4721406884       -1.0488878880  SOLV      6544            0.0000000000
     19745      6555  TIP3      H1             26.2159838367        3.7408625761       -0.5878447478  SOLV      6544            0.0000000000
     19746      6555  TIP3      H2             27.3765511980        4.0147048924       -1.5320389049  SOLV      6544            0.0000000000
     19747      6556  TIP3      OH2            31.8098795073        3.3043347431       -1.9846418719  SOLV      6545            0.0000000000
     19748      6556  TIP3      H1             32.1710052806        3.7934460936       -2.7580617485  SOLV      6545            0.0000000000
     19749      6556  TIP3      H2             30.8520627065        3.4537080549       -2.0904638800  SOLV      6545            0.0000000000
     19750      6557  TIP3      OH2            32.7256938083        4.2068443413       -4.3750006261  SOLV      6546            0.0000000000
     19751      6557  TIP3      H1             33.4625243820        3.7100571858       -4.7926327985  SOLV      6546            0.0000000000
     19752      6557  TIP3      H2             33.0272168435        5.1297969189       -4.5476520086  SOLV      6546            0.0000000000
     19753      6558  TIP3      OH2            19.1004444147        1.4932032384       -0.9799104805  SOLV      6547            0.0000000000
     19754      6558  TIP3      H1             18.2002687227        1.1192427837       -0.8655715765  SOLV      6547            0.0000000000
     19755      6558  TIP3      H2             19.6228246142        0.6612591030       -1.0137657937  SOLV      6547            0.0000000000
     19756      6559  TIP3      OH2            23.5744818985        1.8436376317       -2.1193424433  SOLV      6548            0.0000000000
     19757      6559  TIP3      H1             24.0939313452        2.2878107832       -2.8098792591  SOLV      6548            0.0000000000
     19758      6559  TIP3      H2             23.9027848113        2.2742337783       -1.3163190555  SOLV      6548            0.0000000000
     19759      6560  TIP3      OH2            28.9800783236        3.3507797040       -2.3366358381  SOLV      6549            0.0000000000
     19760      6560  TIP3      H1             28.9826479259        2.9691205887       -3.2244353132  SOLV      6549            0.0000000000
     19761      6560  TIP3      H2             28.8662298585        2.5470867143       -1.7756260638  SOLV      6549            0.0000000000
     19762      6561  TIP3      OH2            29.3141304129        2.6154629732       -6.6766573025  SOLV      6550            0.0000000000
     19763      6561  TIP3      H1             28.4487861073        3.0417438630       -6.5314777426  SOLV      6550            0.0000000000
     19764      6561  TIP3      H2             29.1616697640        1.7421013277       -6.2569465892  SOLV      6550            0.0000000000
     19765      6562  TIP3      OH2            14.1378422816       16.0166081746       -6.7527255952  SOLV      6551            0.0000000000
     19766      6562  TIP3      H1             13.2753306356       15.6711100286       -7.0505321851  SOLV      6551            0.0000000000
     19767      6562  TIP3      H2             14.0386881090       16.9470891735       -7.0301878789  SOLV      6551            0.0000000000
     19768      6563  TIP3      OH2            18.1432729623        1.8227924656       -6.7206529491  SOLV      6552            0.0000000000
     19769      6563  TIP3      H1             18.5286399949        1.2242952591       -7.3866549759  SOLV      6552            0.0000000000
     19770      6563  TIP3      H2             18.9258390745        2.3354169112       -6.4437574833  SOLV      6552            0.0000000000
     19771      6564  TIP3      OH2            23.2410778114        3.6218940305       -5.8585929853  SOLV      6553            0.0000000000
     19772      6564  TIP3      H1             23.8715796174        3.1450125906       -5.2934141881  SOLV      6553            0.0000000000
     19773      6564  TIP3      H2             23.4749448516        4.5466672839       -5.6207803044  SOLV      6553            0.0000000000
     19774      6565  TIP3      OH2            21.8634861575       17.8004781529      -10.8870581128  SOLV      6554            0.0000000000
     19775      6565  TIP3      H1             22.7538669181       18.0160507380      -11.2366784396  SOLV      6554            0.0000000000
     19776      6565  TIP3      H2             21.6441745474       17.0505703755      -11.4868917511  SOLV      6554            0.0000000000
     19777      6566  TIP3      OH2            29.0353909610       19.0145075033       -9.9208594430  SOLV      6555            0.0000000000
     19778      6566  TIP3      H1             28.9603100231       18.0346897197      -10.0212890534  SOLV      6555            0.0000000000
     19779      6566  TIP3      H2             28.5797075761       19.3150247922      -10.7333117909  SOLV      6555            0.0000000000
     19780      6567  TIP3      OH2            21.1745944305        4.3438049408        7.9515923323  SOLV      6556            0.0000000000
     19781      6567  TIP3      H1             20.8033529791        3.6352295796        8.5073123241  SOLV      6556            0.0000000000
     19782      6567  TIP3      H2             22.1130259842        4.3244728003        8.2402662904  SOLV      6556            0.0000000000
     19783      6568  TIP3      OH2            23.6928485792        4.3177537940        9.1363517318  SOLV      6557            0.0000000000
     19784      6568  TIP3      H1             24.5392364516        4.0558531336        8.7365540970  SOLV      6557            0.0000000000
     19785      6568  TIP3      H2             23.5690616539        3.6108365026        9.8049642353  SOLV      6557            0.0000000000
     19786      6569  TIP3      OH2            14.9249092676       16.2271437239      -10.3374344522  SOLV      6558            0.0000000000
     19787      6569  TIP3      H1             14.9124759320       16.3226665262       -9.3748550872  SOLV      6558            0.0000000000
     19788      6569  TIP3      H2             15.7870571996       15.7753707661      -10.4909413550  SOLV      6558            0.0000000000
     19789      6570  TIP3      OH2            31.9649181743        4.9770971003        7.0059725381  SOLV      6559            0.0000000000
     19790      6570  TIP3      H1             32.1438050170        4.6484897079        7.9132707990  SOLV      6559            0.0000000000
     19791      6570  TIP3      H2             32.8552645794        4.9186911878        6.5971584522  SOLV      6559            0.0000000000
     19792      6571  TIP3      OH2            31.3033908240       20.4512055816        1.9043944762  SOLV      6560            0.0000000000
     19793      6571  TIP3      H1             30.5178058071       20.1565031469        1.3977750869  SOLV      6560            0.0000000000
     19794      6571  TIP3      H2             31.1091865802       21.4083681196        1.9822422443  SOLV      6560            0.0000000000
     19795      6572  TIP3      OH2            36.9832081010       13.2988698708       -2.9993638877  SOLV      6561            0.0000000000
     19796      6572  TIP3      H1             37.2726752363       12.5247146671       -2.4943002253  SOLV      6561            0.0000000000
     19797      6572  TIP3      H2             37.4486390866       14.0053999963       -2.5141625667  SOLV      6561            0.0000000000
     19798      6573  TIP3      OH2            36.7534232374       17.2291375488       -5.6833147178  SOLV      6562            0.0000000000
     19799      6573  TIP3      H1             36.6370812028       16.2621733272       -5.8323462571  SOLV      6562            0.0000000000
     19800      6573  TIP3      H2             37.4328398031       17.2068596073       -4.9852535487  SOLV      6562            0.0000000000
     19801      6574  TIP3      OH2            33.6814711122        9.2674090825       -7.9258037810  SOLV      6563            0.0000000000
     19802      6574  TIP3      H1             33.2012784753       10.0943727624       -7.7342822055  SOLV      6563            0.0000000000
     19803      6574  TIP3      H2             32.9737781952        8.7577617447       -8.3635146171  SOLV      6563            0.0000000000
     19804      6575  TIP3      OH2            34.3140346208       12.2684153841       -6.1320873941  SOLV      6564            0.0000000000
     19805      6575  TIP3      H1             34.7589469650       11.4401161376       -5.8424404658  SOLV      6564            0.0000000000
     19806      6575  TIP3      H2             34.9476973974       12.6181987156       -6.7766300321  SOLV      6564            0.0000000000
     19807      6576  TIP3      OH2            35.5929515229       10.0651777736       -5.1583790198  SOLV      6565            0.0000000000
     19808      6576  TIP3      H1             36.4054856706        9.8206966316       -4.6730544356  SOLV      6565            0.0000000000
     19809      6576  TIP3      H2             35.7593025718        9.5535569396       -5.9791929313  SOLV      6565            0.0000000000
     19810      6577  TIP3      OH2            38.5273870417        7.5515728291       -1.7911862420  SOLV      6566            0.0000000000
     19811      6577  TIP3      H1             38.1524629489        8.2290485876       -2.3740087193  SOLV      6566            0.0000000000
     19812      6577  TIP3      H2             38.3391764722        7.9237713926       -0.9110956581  SOLV      6566            0.0000000000
     19813      6578  TIP3      OH2            37.8736885124        9.0401059239       -4.0504546124  SOLV      6567            0.0000000000
     19814      6578  TIP3      H1             38.2888975486        9.9351137659       -4.0996985432  SOLV      6567            0.0000000000
     19815      6578  TIP3      H2             38.6635879598        8.4977757604       -4.2794478013  SOLV      6567            0.0000000000
     19816      6579  TIP3      OH2            38.5285416416       17.5398158812       -3.2424967534  SOLV      6568            0.0000000000
     19817      6579  TIP3      H1             38.4983916796       18.5145405959       -3.2154541655  SOLV      6568            0.0000000000
     19818      6579  TIP3      H2             37.9602705497       17.3337790398       -2.4799243362  SOLV      6568            0.0000000000
     19819      6580  TIP3      OH2            32.6701276247       14.5040447873      -10.5247348292  SOLV      6569            0.0000000000
     19820      6580  TIP3      H1             32.2724120487       14.8261739320      -11.3518982496  SOLV      6569            0.0000000000
     19821      6580  TIP3      H2             33.0012980954       15.3413258966      -10.1327473532  SOLV      6569            0.0000000000
     19822      6581  TIP3      OH2            37.5906506695       13.2052537854       -7.8894890829  SOLV      6570            0.0000000000
     19823      6581  TIP3      H1             37.3193543680       12.7590694027       -8.7163021062  SOLV      6570            0.0000000000
     19824      6581  TIP3      H2             38.5290050814       13.4269977867       -8.0890040817  SOLV      6570            0.0000000000
     19825      6582  TIP3      OH2            38.1100354951       14.3343151521       -0.6092484831  SOLV      6571            0.0000000000
     19826      6582  TIP3      H1             38.3913698618       15.1360004824       -0.1332531333  SOLV      6571            0.0000000000
     19827      6582  TIP3      H2             37.2436540658       14.1653570392       -0.1825211990  SOLV      6571            0.0000000000
     19828      6583  TIP3      OH2            38.5817719096       20.7815596246       -0.4810367627  SOLV      6572            0.0000000000
     19829      6583  TIP3      H1             38.3960252564       20.4351475226       -1.3670254389  SOLV      6572            0.0000000000
     19830      6583  TIP3      H2             37.8902871482       20.3731193604        0.0694731348  SOLV      6572            0.0000000000
     19831      6584  TIP3      OH2            36.6121833611       11.8126793889      -10.1104210167  SOLV      6573            0.0000000000
     19832      6584  TIP3      H1             36.1058631189       12.3369817226      -10.7615779635  SOLV      6573            0.0000000000
     19833      6584  TIP3      H2             36.2124738376       10.9472847975      -10.2326572041  SOLV      6573            0.0000000000
     19834      6585  TIP3      OH2            34.5779309353       15.8103143323       -1.1081407156  SOLV      6574            0.0000000000
     19835      6585  TIP3      H1             33.8790018139       15.6225449617       -1.7712300507  SOLV      6574            0.0000000000
     19836      6585  TIP3      H2             34.9005741183       14.9171598780       -0.8756133883  SOLV      6574            0.0000000000
     19837      6586  TIP3      OH2            33.0801066512       17.7081898469       -4.7527694707  SOLV      6575            0.0000000000
     19838      6586  TIP3      H1             34.0427694404       17.6873978540       -4.8340711942  SOLV      6575            0.0000000000
     19839      6586  TIP3      H2             32.9450294378       18.5100658789       -4.2255039296  SOLV      6575            0.0000000000
     19840      6587  TIP3      OH2            34.6529807754       19.8631338856       -9.4010563565  SOLV      6576            0.0000000000
     19841      6587  TIP3      H1             35.2785898980       19.7516264054       -8.6626132332  SOLV      6576            0.0000000000
     19842      6587  TIP3      H2             34.2499994088       18.9823502663       -9.4379480013  SOLV      6576            0.0000000000
     19843      6588  TIP3      OH2            36.6080583747       17.6605382066       -1.2374884197  SOLV      6577            0.0000000000
     19844      6588  TIP3      H1             37.1312780692       17.4260750242       -0.4436977064  SOLV      6577            0.0000000000
     19845      6588  TIP3      H2             35.8741149638       17.0124732115       -1.1892967265  SOLV      6577            0.0000000000
     19846      6589  TIP3      OH2            39.1033232362       11.4255116748       -3.8924624694  SOLV      6578            0.0000000000
     19847      6589  TIP3      H1             38.9631671905       11.6196579682       -2.9488476089  SOLV      6578            0.0000000000
     19848      6589  TIP3      H2             39.7392321668       12.0965773583       -4.1554010037  SOLV      6578            0.0000000000
     19849      6590  TIP3      OH2            38.6079359335        9.7384261037       -8.3694387716  SOLV      6579            0.0000000000
     19850      6590  TIP3      H1             37.7601890549        9.6609161166       -7.9006414011  SOLV      6579            0.0000000000
     19851      6590  TIP3      H2             38.4355476998       10.4573786866       -9.0022560838  SOLV      6579            0.0000000000
     19852      6591  TIP3      OH2            38.4783189852       11.2769372363       -1.1252270922  SOLV      6580            0.0000000000
     19853      6591  TIP3      H1             38.4851942559       12.0595308917       -0.5491352205  SOLV      6580            0.0000000000
     19854      6591  TIP3      H2             38.2280230498       10.5586971693       -0.5086294140  SOLV      6580            0.0000000000
     19855      6592  TIP3      OH2            33.8371005214        6.4781186974       -5.2909462134  SOLV      6581            0.0000000000
     19856      6592  TIP3      H1             34.5401022669        6.8946238527       -4.7547637090  SOLV      6581            0.0000000000
     19857      6592  TIP3      H2             34.2811174339        6.2227702788       -6.1133529044  SOLV      6581            0.0000000000
     19858      6593  TIP3      OH2            33.8624316237        6.5487692182       -9.9594341370  SOLV      6582            0.0000000000
     19859      6593  TIP3      H1             34.1401318264        6.8805790587      -10.8408652492  SOLV      6582            0.0000000000
     19860      6593  TIP3      H2             33.1228628384        7.1620737069       -9.7847625199  SOLV      6582            0.0000000000
     19861      6594  TIP3      OH2            36.2088959909        8.6320020125       -7.3940376533  SOLV      6583            0.0000000000
     19862      6594  TIP3      H1             35.2865612774        8.8493707059       -7.6793786719  SOLV      6583            0.0000000000
     19863      6594  TIP3      H2             36.2632517840        7.6962284513       -7.6117997641  SOLV      6583            0.0000000000
     19864      6595  TIP3      OH2            37.3157937276        8.9416122947      -13.0446775347  SOLV      6584            0.0000000000
     19865      6595  TIP3      H1             36.6190094197        8.4130540008      -12.6349175459  SOLV      6584            0.0000000000
     19866      6595  TIP3      H2             37.0137941689        8.9209195951      -13.9667753242  SOLV      6584            0.0000000000
     19867      6596  TIP3      OH2            38.1849552739       16.8047717869        0.9409071249  SOLV      6585            0.0000000000
     19868      6596  TIP3      H1             39.0033424775       17.0755548270        1.3945859853  SOLV      6585            0.0000000000
     19869      6596  TIP3      H2             37.5632672442       16.7669452846        1.6931966383  SOLV      6585            0.0000000000
     19870      6597  TIP3      OH2            36.7930416561       14.5108970856       -5.6637470570  SOLV      6586            0.0000000000
     19871      6597  TIP3      H1             37.0996359101       14.0621301135       -6.4863808495  SOLV      6586            0.0000000000
     19872      6597  TIP3      H2             37.0422658189       13.8724543557       -4.9777096778  SOLV      6586            0.0000000000
     19873      6598  TIP3      OH2            35.6417440335       13.6604762626        0.3593931413  SOLV      6587            0.0000000000
     19874      6598  TIP3      H1             35.8404661190       13.4613787192        1.2960135253  SOLV      6587            0.0000000000
     19875      6598  TIP3      H2             34.9397584856       13.0147596768        0.1632378805  SOLV      6587            0.0000000000
     19876      6599  TIP3      OH2            33.5886879970       10.4975597287      -12.5179994591  SOLV      6588            0.0000000000
     19877      6599  TIP3      H1             34.0061227459       11.3664933722      -12.3372107015  SOLV      6588            0.0000000000
     19878      6599  TIP3      H2             32.8021733529       10.5469962113      -11.9294688164  SOLV      6588            0.0000000000
     19879      6600  TIP3      OH2            37.6994097757        8.8523971673        0.5019201961  SOLV      6589            0.0000000000
     19880      6600  TIP3      H1             36.7243665390        8.8405024909        0.5691498647  SOLV      6589            0.0000000000
     19881      6600  TIP3      H2             37.9577833975        8.1960717841        1.1723052558  SOLV      6589            0.0000000000
     19882      6601  TIP3      OH2            35.0476940766       19.5216721608       -3.3411276778  SOLV      6590            0.0000000000
     19883      6601  TIP3      H1             35.5907430796       18.8234383047       -2.9375836761  SOLV      6590            0.0000000000
     19884      6601  TIP3      H2             35.2694450441       20.2784946003       -2.7834468698  SOLV      6590            0.0000000000
     19885      6602  TIP3      OH2            34.6342514970       12.9799634430      -11.7620542665  SOLV      6591            0.0000000000
     19886      6602  TIP3      H1             33.9940054883       13.4120958646      -11.1582069609  SOLV      6591            0.0000000000
     19887      6602  TIP3      H2             34.7351354974       13.6829193228      -12.4327777409  SOLV      6591            0.0000000000
     19888      6603  TIP3      OH2            34.6252344044       15.0460378908      -13.6720313305  SOLV      6592            0.0000000000
     19889      6603  TIP3      H1             35.2616289450       15.7683462804      -13.5983952580  SOLV      6592            0.0000000000
     19890      6603  TIP3      H2             35.0295784920       14.5114354267      -14.3957619889  SOLV      6592            0.0000000000
     19891      6604  TIP3      OH2            34.1882797313        7.8405059878      -12.3184388969  SOLV      6593            0.0000000000
     19892      6604  TIP3      H1             34.0334890157        8.8089621692      -12.3533248669  SOLV      6593            0.0000000000
     19893      6604  TIP3      H2             33.5837567782        7.5286749559      -13.0075319467  SOLV      6593            0.0000000000
     19894      6605  TIP3      OH2            36.7299803947        4.6520213496       -3.0768933419  SOLV      6594            0.0000000000
     19895      6605  TIP3      H1             36.6855402678        4.4186460471       -4.0254164638  SOLV      6594            0.0000000000
     19896      6605  TIP3      H2             37.1515875622        3.8465424451       -2.7170393472  SOLV      6594            0.0000000000
     19897      6606  TIP3      OH2            33.2203990058       17.1580417357       -9.8537151798  SOLV      6595            0.0000000000
     19898      6606  TIP3      H1             32.5793230022       17.5194321485       -9.2265419015  SOLV      6595            0.0000000000
     19899      6606  TIP3      H2             32.9572544440       17.6129812235      -10.6873691686  SOLV      6595            0.0000000000
     19900      6607  TIP3      OH2            34.8986192027       22.6164448594        0.8698577559  SOLV      6596            0.0000000000
     19901      6607  TIP3      H1             35.7832371211       22.4976947560        1.2636881121  SOLV      6596            0.0000000000
     19902      6607  TIP3      H2             34.5807455130       21.6965759317        0.8530981184  SOLV      6596            0.0000000000
     19903      6608  TIP3      OH2            36.1992062225       16.6959642677        2.9055877140  SOLV      6597            0.0000000000
     19904      6608  TIP3      H1             36.3298182967       15.7375006813        3.0144341797  SOLV      6597            0.0000000000
     19905      6608  TIP3      H2             35.3382746667       16.7265765436        2.4316564956  SOLV      6597            0.0000000000
     19906      6609  TIP3      OH2            35.8536922881       13.3156985005      -15.3430985925  SOLV      6598            0.0000000000
     19907      6609  TIP3      H1             36.5013964359       13.1460099416      -14.6364654022  SOLV      6598            0.0000000000
     19908      6609  TIP3      H2             36.3990183225       13.0777884064      -16.1094647085  SOLV      6598            0.0000000000
     19909      6610  TIP3      OH2            37.5383339792       14.0286154503        2.6587262448  SOLV      6599            0.0000000000
     19910      6610  TIP3      H1             38.3907948717       13.6696704285        2.3602248048  SOLV      6599            0.0000000000
     19911      6610  TIP3      H2             37.7618302869       14.3213329310        3.5654244052  SOLV      6599            0.0000000000
     19912      6611  TIP3      OH2            40.1343614174       12.3262303733        2.5400942709  SOLV      6600            0.0000000000
     19913      6611  TIP3      H1             39.6443006932       11.6017453746        2.9687247831  SOLV      6600            0.0000000000
     19914      6611  TIP3      H2             40.9336041350       11.8483477630        2.2701209214  SOLV      6600            0.0000000000
     19915      6612  TIP3      OH2            39.0936949282        9.8574051914        3.4368505680  SOLV      6601            0.0000000000
     19916      6612  TIP3      H1             39.9113068702        9.5966454509        2.9781148903  SOLV      6601            0.0000000000
     19917      6612  TIP3      H2             39.2613978883        9.4635892520        4.3166905153  SOLV      6601            0.0000000000
     19918      6613  TIP3      OH2            31.9320441341       14.6382789745      -13.3828214833  SOLV      6602            0.0000000000
     19919      6613  TIP3      H1             32.8922560547       14.8120059504      -13.4916940126  SOLV      6602            0.0000000000
     19920      6613  TIP3      H2             31.8594748461       13.7274892468      -13.7424084661  SOLV      6602            0.0000000000
     19921      6614  TIP3      OH2            31.0611377161       20.7205466402       -9.1496597856  SOLV      6603            0.0000000000
     19922      6614  TIP3      H1             30.4158806131       20.0929381573       -9.5400817784  SOLV      6603            0.0000000000
     19923      6614  TIP3      H2             31.5395388947       20.1329748510       -8.5261353415  SOLV      6603            0.0000000000
     19924      6615  TIP3      OH2            32.3943110808       19.1880753913       -7.2861906403  SOLV      6604            0.0000000000
     19925      6615  TIP3      H1             32.3158085670       18.5051916709       -6.6002314406  SOLV      6604            0.0000000000
     19926      6615  TIP3      H2             32.9546708708       19.8401594750       -6.8293199114  SOLV      6604            0.0000000000
     19927      6616  TIP3      OH2            34.3019648838       13.2484600502       -3.5512643965  SOLV      6605            0.0000000000
     19928      6616  TIP3      H1             34.2455821555       12.9838818932       -4.4959885923  SOLV      6605            0.0000000000
     19929      6616  TIP3      H2             35.2765272719       13.3393367513       -3.4527916335  SOLV      6605            0.0000000000
     19930      6617  TIP3      OH2            36.3591079350       10.1345229765        3.0951592082  SOLV      6606            0.0000000000
     19931      6617  TIP3      H1             37.3387385938       10.0798736176        3.0759392369  SOLV      6606            0.0000000000
     19932      6617  TIP3      H2             36.1448753407        9.2735195748        3.5093430263  SOLV      6606            0.0000000000
     19933      6618  TIP3      OH2            35.7137410683        7.2427055006       -3.3831634199  SOLV      6607            0.0000000000
     19934      6618  TIP3      H1             36.1491379890        6.4039425105       -3.1170042461  SOLV      6607            0.0000000000
     19935      6618  TIP3      H2             36.4758616254        7.8103534490       -3.5978696986  SOLV      6607            0.0000000000
     19936      6619  TIP3      OH2            34.0663227821        9.8813540667       -2.7861386040  SOLV      6608            0.0000000000
     19937      6619  TIP3      H1             34.5054869007        9.7620856777       -3.6516252639  SOLV      6608            0.0000000000
     19938      6619  TIP3      H2             34.3562258773       10.7672089709       -2.5469927344  SOLV      6608            0.0000000000
     19939      6620  TIP3      OH2            34.0418461014        4.9853407852       -7.7717349341  SOLV      6609            0.0000000000
     19940      6620  TIP3      H1             33.1118446344        4.8363658132       -7.5262463816  SOLV      6609            0.0000000000
     19941      6620  TIP3      H2             33.9539374819        5.5850346340       -8.5456975488  SOLV      6609            0.0000000000
     19942      6621  TIP3      OH2            36.0151086744        5.5899927952        0.2608067458  SOLV      6610            0.0000000000
     19943      6621  TIP3      H1             35.5882011886        5.7327678061        1.1184112232  SOLV      6610            0.0000000000
     19944      6621  TIP3      H2             35.4309960426        6.1059522668       -0.3296440435  SOLV      6610            0.0000000000
     19945      6622  TIP3      OH2            36.5293638538       20.0130471957        1.3450063662  SOLV      6611            0.0000000000
     19946      6622  TIP3      H1             35.6725647856       19.7788996038        0.9436326766  SOLV      6611            0.0000000000
     19947      6622  TIP3      H2             36.4363817212       19.6201281306        2.2231302297  SOLV      6611            0.0000000000
     19948      6623  TIP3      OH2            38.3312590892       20.3013316047       -3.3906563889  SOLV      6612            0.0000000000
     19949      6623  TIP3      H1             37.7878449504       21.0055596007       -3.8051996401  SOLV      6612            0.0000000000
     19950      6623  TIP3      H2             39.1799620458       20.4955230433       -3.7964998364  SOLV      6612            0.0000000000
     19951      6624  TIP3      OH2            35.1058272720       22.8673714371       -3.0877396480  SOLV      6613            0.0000000000
     19952      6624  TIP3      H1             34.2148432009       23.1733019440       -3.3707566196  SOLV      6613            0.0000000000
     19953      6624  TIP3      H2             35.2048648870       23.3795972292       -2.2710904009  SOLV      6613            0.0000000000
     19954      6625  TIP3      OH2            37.2713661951       22.4829895008       -4.6940461795  SOLV      6614            0.0000000000
     19955      6625  TIP3      H1             36.5117703414       22.6644354339       -4.0946122883  SOLV      6614            0.0000000000
     19956      6625  TIP3      H2             36.9488694146       22.8726688071       -5.5125072365  SOLV      6614            0.0000000000
     19957      6626  TIP3      OH2            34.2113314334       20.7690853450       -5.7307973151  SOLV      6615            0.0000000000
     19958      6626  TIP3      H1             34.5006811459       20.4703217143       -4.8433925943  SOLV      6615            0.0000000000
     19959      6626  TIP3      H2             34.9049046562       20.3354366453       -6.2766423642  SOLV      6615            0.0000000000
     19960      6627  TIP3      OH2            36.1665511161       19.4431201659       -7.0936761709  SOLV      6616            0.0000000000
     19961      6627  TIP3      H1             36.2358794167       18.5695377282       -6.6336491371  SOLV      6616            0.0000000000
     19962      6627  TIP3      H2             37.0998489960       19.6620391977       -7.1632853839  SOLV      6616            0.0000000000
     19963      6628  TIP3      OH2            37.0930345586        4.1077420230       -5.8101800718  SOLV      6617            0.0000000000
     19964      6628  TIP3      H1             36.1748049086        3.8022646821       -5.9650195404  SOLV      6617            0.0000000000
     19965      6628  TIP3      H2             37.3210502063        4.5492116722       -6.6540438199  SOLV      6617            0.0000000000
     19966      6629  TIP3      OH2            34.8453611815        2.7347391285       -9.3242390681  SOLV      6618            0.0000000000
     19967      6629  TIP3      H1             34.9864598614        3.1318967671      -10.1992802602  SOLV      6618            0.0000000000
     19968      6629  TIP3      H2             34.5808816888        3.5050755462       -8.7860534012  SOLV      6618            0.0000000000
     19969      6630  TIP3      OH2            32.1330353353       18.5358446685      -11.9156983037  SOLV      6619            0.0000000000
     19970      6630  TIP3      H1             31.2417584900       18.2525564642      -12.1951135236  SOLV      6619            0.0000000000
     19971      6630  TIP3      H2             32.0500497774       19.4962931417      -12.0516311224  SOLV      6619            0.0000000000
     19972      6631  TIP3      OH2            35.2336481416        4.2097650832      -11.8952711625  SOLV      6620            0.0000000000
     19973      6631  TIP3      H1             35.8316873547        3.5032618692      -12.1911635798  SOLV      6620            0.0000000000
     19974      6631  TIP3      H2             35.8902706282        4.8778310454      -11.6584635185  SOLV      6620            0.0000000000
     19975      6632  TIP3      OH2            38.7883887647        6.4759042602        2.4247503371  SOLV      6621            0.0000000000
     19976      6632  TIP3      H1             38.3881345736        6.0149702418        3.1829823006  SOLV      6621            0.0000000000
     19977      6632  TIP3      H2             39.6122798273        6.8120102401        2.8466660646  SOLV      6621            0.0000000000
     19978      6633  TIP3      OH2            32.8231993353       18.8178111884      -15.2434348179  SOLV      6622            0.0000000000
     19979      6633  TIP3      H1             32.5532125433       19.1183935502      -14.3606296901  SOLV      6622            0.0000000000
     19980      6633  TIP3      H2             33.5063717839       18.1669961217      -15.0355293348  SOLV      6622            0.0000000000
     19981      6634  TIP3      OH2           -31.3869851150       21.5923848081        6.6415516008  SOLV      6623            0.0000000000
     19982      6634  TIP3      H1            -31.5609739054       22.5474779296        6.7386006187  SOLV      6623            0.0000000000
     19983      6634  TIP3      H2            -32.1397383035       21.3498649132        6.0732747741  SOLV      6623            0.0000000000
     19984      6635  TIP3      OH2           -31.0002371596       21.8249379547       10.0933759520  SOLV      6624            0.0000000000
     19985      6635  TIP3      H1            -31.0364917626       21.6813192782       11.0604148486  SOLV      6624            0.0000000000
     19986      6635  TIP3      H2            -30.8730390266       20.9097406774        9.7805455699  SOLV      6624            0.0000000000
     19987      6636  TIP3      OH2           -29.0631494015       25.0077806431        7.1403415685  SOLV      6625            0.0000000000
     19988      6636  TIP3      H1            -29.0744539732       24.3256069641        7.8305059782  SOLV      6625            0.0000000000
     19989      6636  TIP3      H2            -28.6250854547       25.7438734302        7.5881379703  SOLV      6625            0.0000000000
     19990      6637  TIP3      OH2           -23.3410791603       17.4963211434       10.7952369897  SOLV      6626            0.0000000000
     19991      6637  TIP3      H1            -23.0431803843       18.3446263059       11.1780977431  SOLV      6626            0.0000000000
     19992      6637  TIP3      H2            -23.1474284222       17.6363190032        9.8512360311  SOLV      6626            0.0000000000
     19993      6638  TIP3      OH2           -28.8855628785       19.3832781853       11.0831254674  SOLV      6627            0.0000000000
     19994      6638  TIP3      H1            -28.5022871517       18.4892240972       11.0938794156  SOLV      6627            0.0000000000
     19995      6638  TIP3      H2            -29.8154316640       19.1825872011       10.8396792735  SOLV      6627            0.0000000000
     19996      6639  TIP3      OH2           -28.9558540696       16.7819107275        6.8900369946  SOLV      6628            0.0000000000
     19997      6639  TIP3      H1            -28.2751135794       16.6626105609        7.5921975399  SOLV      6628            0.0000000000
     19998      6639  TIP3      H2            -28.3941040576       17.1068095942        6.1610591022  SOLV      6628            0.0000000000
     19999      6640  TIP3      OH2           -22.5859166864       19.5995793857       12.5115348861  SOLV      6629            0.0000000000
     20000      6640  TIP3      H1            -23.4261248103       20.0521712660       12.2794205695  SOLV      6629            0.0000000000
     20001      6640  TIP3      H2            -22.3565778733       20.0498248024       13.3420377127  SOLV      6629            0.0000000000
     20002      6641  TIP3      OH2           -26.9806161161       16.8994843698        8.7736319613  SOLV      6630            0.0000000000
     20003      6641  TIP3      H1            -27.1241393816       16.5473949215        9.6607964496  SOLV      6630            0.0000000000
     20004      6641  TIP3      H2            -26.5069767233       17.7333598017        8.9713694180  SOLV      6630            0.0000000000
     20005      6642  TIP3      OH2           -28.4996033923       27.6353445644        8.8340319354  SOLV      6631            0.0000000000
     20006      6642  TIP3      H1            -29.4521204625       27.5113044762        8.8536971293  SOLV      6631            0.0000000000
     20007      6642  TIP3      H2            -28.4346238332       28.4933174235        8.3624636308  SOLV      6631            0.0000000000
     20008      6643  TIP3      OH2           -25.4035665471       16.4546455341       12.4230230184  SOLV      6632            0.0000000000
     20009      6643  TIP3      H1            -26.2651588992       16.7463151192       12.0791850762  SOLV      6632            0.0000000000
     20010      6643  TIP3      H2            -24.7836782592       16.8091409885       11.7496172376  SOLV      6632            0.0000000000
     20011      6644  TIP3      OH2           -32.9434536694       12.7908129837       12.6694472716  SOLV      6633            0.0000000000
     20012      6644  TIP3      H1            -31.9842235010       12.5895031573       12.7717892020  SOLV      6633            0.0000000000
     20013      6644  TIP3      H2            -32.8968695767       13.7634475475       12.7893618719  SOLV      6633            0.0000000000
     20014      6645  TIP3      OH2           -30.9536583042       27.9406366371        5.7890589141  SOLV      6634            0.0000000000
     20015      6645  TIP3      H1            -30.5571541279       27.1470614499        5.3705626503  SOLV      6634            0.0000000000
     20016      6645  TIP3      H2            -30.6097947702       28.6396923557        5.1935350045  SOLV      6634            0.0000000000
     20017      6646  TIP3      OH2           -29.9149475729       25.6923684856        4.5688922308  SOLV      6635            0.0000000000
     20018      6646  TIP3      H1            -29.8694695866       24.9174039585        3.9844254939  SOLV      6635            0.0000000000
     20019      6646  TIP3      H2            -29.6448585792       25.3164284445        5.4341695798  SOLV      6635            0.0000000000
     20020      6647  TIP3      OH2           -26.0721965819       26.6404793955       12.2321189039  SOLV      6636            0.0000000000
     20021      6647  TIP3      H1            -26.2418668848       25.8558746561       11.6641525707  SOLV      6636            0.0000000000
     20022      6647  TIP3      H2            -26.2540739930       27.3724181765       11.6041418985  SOLV      6636            0.0000000000
     20023      6648  TIP3      OH2           -33.1922569982       20.6318643468        4.7393162434  SOLV      6637            0.0000000000
     20024      6648  TIP3      H1            -34.0080010523       20.9428207061        4.3323019554  SOLV      6637            0.0000000000
     20025      6648  TIP3      H2            -32.5931894090       20.5736051973        3.9671888826  SOLV      6637            0.0000000000
     20026      6649  TIP3      OH2           -33.1455596803       18.4717470506        2.1167287065  SOLV      6638            0.0000000000
     20027      6649  TIP3      H1            -32.3696546692       19.0110317771        2.3708910713  SOLV      6638            0.0000000000
     20028      6649  TIP3      H2            -32.7116539857       17.7089068110        1.6939754764  SOLV      6638            0.0000000000
     20029      6650  TIP3      OH2           -24.1455945203       23.0650907626       10.7030564037  SOLV      6639            0.0000000000
     20030      6650  TIP3      H1            -24.9974279310       23.5540972854       10.7381736775  SOLV      6639            0.0000000000
     20031      6650  TIP3      H2            -23.8504254153       23.3030417707        9.7965943806  SOLV      6639            0.0000000000
     20032      6651  TIP3      OH2           -29.5599934037       21.5593611691        4.5790249812  SOLV      6640            0.0000000000
     20033      6651  TIP3      H1            -30.0985048765       21.6123146171        5.4000180149  SOLV      6640            0.0000000000
     20034      6651  TIP3      H2            -28.7040833893       21.2606906415        4.9563068351  SOLV      6640            0.0000000000
     20035      6652  TIP3      OH2           -27.0390789740       21.7334748911       13.7901253067  SOLV      6641            0.0000000000
     20036      6652  TIP3      H1            -27.1215127514       22.5231041124       14.3690465108  SOLV      6641            0.0000000000
     20037      6652  TIP3      H2            -27.8848903675       21.8083598550       13.2869051386  SOLV      6641            0.0000000000
     20038      6653  TIP3      OH2           -31.1176902777       20.1261077258        2.8741902383  SOLV      6642            0.0000000000
     20039      6653  TIP3      H1            -30.5104375656       20.7331139139        3.3534049305  SOLV      6642            0.0000000000
     20040      6653  TIP3      H2            -30.8725808282       20.3369740988        1.9346178764  SOLV      6642            0.0000000000
     20041      6654  TIP3      OH2           -26.1286011640       12.3738323811        3.2683507189  SOLV      6643            0.0000000000
     20042      6654  TIP3      H1            -26.9436757331       12.6279404652        3.7513448156  SOLV      6643            0.0000000000
     20043      6654  TIP3      H2            -25.9628355131       13.1891453582        2.7473055760  SOLV      6643            0.0000000000
     20044      6655  TIP3      OH2           -28.1507666994       26.0415519883       -1.2159983371  SOLV      6644            0.0000000000
     20045      6655  TIP3      H1            -28.0631440575       26.9949055645       -1.4315523426  SOLV      6644            0.0000000000
     20046      6655  TIP3      H2            -27.2256626764       25.7333267052       -1.3424911618  SOLV      6644            0.0000000000
     20047      6656  TIP3      OH2           -23.7189086937       30.1548510884       12.6919936127  SOLV      6645            0.0000000000
     20048      6656  TIP3      H1            -23.7199661420       29.1911573441       12.8571680953  SOLV      6645            0.0000000000
     20049      6656  TIP3      H2            -24.5448371420       30.4074884203       13.1697795937  SOLV      6645            0.0000000000
     20050      6657  TIP3      OH2           -32.8361895045       28.1629801192        0.2864784330  SOLV      6646            0.0000000000
     20051      6657  TIP3      H1            -32.3336566980       27.6422207290       -0.3756387377  SOLV      6646            0.0000000000
     20052      6657  TIP3      H2            -32.3817288310       27.9295504761        1.1016056425  SOLV      6646            0.0000000000
     20053      6658  TIP3      OH2           -24.8345126968       21.3735313831       15.4935799957  SOLV      6647            0.0000000000
     20054      6658  TIP3      H1            -25.6438809702       21.4981217964       14.9629344983  SOLV      6647            0.0000000000
     20055      6658  TIP3      H2            -24.6835812343       20.4132281265       15.3685476174  SOLV      6647            0.0000000000
     20056      6659  TIP3      OH2           -29.5901247226       14.7638787995       15.7818872679  SOLV      6648            0.0000000000
     20057      6659  TIP3      H1            -28.6721686668       14.4828666784       15.9988775936  SOLV      6648            0.0000000000
     20058      6659  TIP3      H2            -29.9648861549       14.7436260904       16.6785961762  SOLV      6648            0.0000000000
     20059      6660  TIP3      OH2           -27.3280174266       19.0160981297       14.6717336783  SOLV      6649            0.0000000000
     20060      6660  TIP3      H1            -27.8538950224       19.1085011300       15.4948404150  SOLV      6649            0.0000000000
     20061      6660  TIP3      H2            -27.4236089064       19.9066415610       14.2833571957  SOLV      6649            0.0000000000
     20062      6661  TIP3      OH2           -30.4169928776       20.5292265990        0.3436172225  SOLV      6650            0.0000000000
     20063      6661  TIP3      H1            -30.7741498198       20.1925061563       -0.4995982002  SOLV      6650            0.0000000000
     20064      6661  TIP3      H2            -29.5791290278       20.9230068759        0.0307065903  SOLV      6650            0.0000000000
     20065      6662  TIP3      OH2           -32.0783048935       18.4568369503        6.0405473893  SOLV      6651            0.0000000000
     20066      6662  TIP3      H1            -32.4287772500       19.2457111312        5.5788213580  SOLV      6651            0.0000000000
     20067      6662  TIP3      H2            -31.4084261234       18.1401621364        5.4005644807  SOLV      6651            0.0000000000
     20068      6663  TIP3      OH2           -29.9195191811       21.2496805463       17.6207284422  SOLV      6652            0.0000000000
     20069      6663  TIP3      H1            -29.2734069719       20.5742700996       17.9023729423  SOLV      6652            0.0000000000
     20070      6663  TIP3      H2            -29.3040515454       21.9468728258       17.3421381252  SOLV      6652            0.0000000000
     20071      6664  TIP3      OH2           -29.9905354162       19.0884485850        8.0650800611  SOLV      6653            0.0000000000
     20072      6664  TIP3      H1            -30.7157532036       19.3070293053        7.4572511312  SOLV      6653            0.0000000000
     20073      6664  TIP3      H2            -29.7175142384       18.2147684319        7.7249328264  SOLV      6653            0.0000000000
     20074      6665  TIP3      OH2           -29.4549952217       21.5592723157       12.5823534512  SOLV      6654            0.0000000000
     20075      6665  TIP3      H1            -29.1958108466       20.7997304405       12.0128897146  SOLV      6654            0.0000000000
     20076      6665  TIP3      H2            -29.9125978245       21.0889550088       13.3137142906  SOLV      6654            0.0000000000
     20077      6666  TIP3      OH2           -28.4224698593       16.6573423403       11.5222193475  SOLV      6655            0.0000000000
     20078      6666  TIP3      H1            -28.7832599553       16.8603130898       12.4159802686  SOLV      6655            0.0000000000
     20079      6666  TIP3      H2            -29.1087941323       16.0545918277       11.1996532024  SOLV      6655            0.0000000000
     20080      6667  TIP3      OH2           -26.7666810743       33.5672773170       13.5665334542  SOLV      6656            0.0000000000
     20081      6667  TIP3      H1            -26.7697499290       33.7660486920       12.6121045472  SOLV      6656            0.0000000000
     20082      6667  TIP3      H2            -25.9909847978       34.0732597034       13.8722957236  SOLV      6656            0.0000000000
     20083      6668  TIP3      OH2           -31.6225830313       19.0616619437       10.6650791481  SOLV      6657            0.0000000000
     20084      6668  TIP3      H1            -32.0097495343       18.6954392802        9.8570704992  SOLV      6657            0.0000000000
     20085      6668  TIP3      H2            -32.4107471553       19.4122230748       11.1204640914  SOLV      6657            0.0000000000
     20086      6669  TIP3      OH2           -26.4828830390       24.5018460600       10.5509457616  SOLV      6658            0.0000000000
     20087      6669  TIP3      H1            -26.2188013326       25.0118641657        9.7551132286  SOLV      6658            0.0000000000
     20088      6669  TIP3      H2            -27.3010105615       24.0520560271       10.2380365353  SOLV      6658            0.0000000000
     20089      6670  TIP3      OH2           -31.2690811004       15.1735960808        3.1238365531  SOLV      6659            0.0000000000
     20090      6670  TIP3      H1            -32.1978580260       15.1806648592        2.7936433416  SOLV      6659            0.0000000000
     20091      6670  TIP3      H2            -31.0709941196       16.1199295066        3.2449938047  SOLV      6659            0.0000000000
     20092      6671  TIP3      OH2           -30.2438451131       17.7266025095        4.0546512080  SOLV      6660            0.0000000000
     20093      6671  TIP3      H1            -29.2769651899       17.6975696780        4.1950455461  SOLV      6660            0.0000000000
     20094      6671  TIP3      H2            -30.3470736626       18.5481615263        3.5372408316  SOLV      6660            0.0000000000
     20095      6672  TIP3      OH2           -25.8583135135       18.6776360287        2.3254098604  SOLV      6661            0.0000000000
     20096      6672  TIP3      H1            -26.4682778097       18.2431355640        1.6817798807  SOLV      6661            0.0000000000
     20097      6672  TIP3      H2            -25.8732854591       19.5741623059        1.9216547984  SOLV      6661            0.0000000000
     20098      6673  TIP3      OH2           -23.5785809260       27.2824295910       13.0842539203  SOLV      6662            0.0000000000
     20099      6673  TIP3      H1            -24.5541355363       27.1826422569       13.0141033901  SOLV      6662            0.0000000000
     20100      6673  TIP3      H2            -23.3172018583       26.9445787359       12.1972419666  SOLV      6662            0.0000000000
     20101      6674  TIP3      OH2           -28.8187895921       26.8356296877        1.3884617063  SOLV      6663            0.0000000000
     20102      6674  TIP3      H1            -29.0698390171       26.1209586202        1.9894836952  SOLV      6663            0.0000000000
     20103      6674  TIP3      H2            -28.6639593756       26.3674648605        0.5462036097  SOLV      6663            0.0000000000
     20104      6675  TIP3      OH2           -28.6821644146       23.2127154786        9.5003843056  SOLV      6664            0.0000000000
     20105      6675  TIP3      H1            -29.5471941696       22.8466225683        9.7815862160  SOLV      6664            0.0000000000
     20106      6675  TIP3      H2            -28.2845443705       22.3890690410        9.1409932039  SOLV      6664            0.0000000000
     20107      6676  TIP3      OH2           -29.9840818559       25.2916350587       12.4022239106  SOLV      6665            0.0000000000
     20108      6676  TIP3      H1            -30.8875553708       25.1857987805       12.7464070426  SOLV      6665            0.0000000000
     20109      6676  TIP3      H2            -29.9388358642       24.6001100581       11.7299720104  SOLV      6665            0.0000000000
     20110      6677  TIP3      OH2           -31.1456733877       24.1058730449        0.5209525611  SOLV      6666            0.0000000000
     20111      6677  TIP3      H1            -30.5718666900       23.8617796997        1.2799329068  SOLV      6666            0.0000000000
     20112      6677  TIP3      H2            -32.0137696269       23.7983088731        0.8507901962  SOLV      6666            0.0000000000
     20113      6678  TIP3      OH2           -28.4409509731       30.4411217485       11.9572345999  SOLV      6667            0.0000000000
     20114      6678  TIP3      H1            -29.2792128390       30.2835548490       12.4127983826  SOLV      6667            0.0000000000
     20115      6678  TIP3      H2            -28.6733165359       31.1832870718       11.3643708976  SOLV      6667            0.0000000000
     20116      6679  TIP3      OH2           -27.8721342000       28.8020338499       -1.4342314163  SOLV      6668            0.0000000000
     20117      6679  TIP3      H1            -27.3247048168       29.5846492851       -1.6444937349  SOLV      6668            0.0000000000
     20118      6679  TIP3      H2            -28.6862213303       29.2391357706       -1.1217271100  SOLV      6668            0.0000000000
     20119      6680  TIP3      OH2           -29.5004540022       23.5457365817        2.6898609651  SOLV      6669            0.0000000000
     20120      6680  TIP3      H1            -29.6074239119       22.8428132084        3.3658420162  SOLV      6669            0.0000000000
     20121      6680  TIP3      H2            -28.5446873340       23.4320998978        2.4850927040  SOLV      6669            0.0000000000
     20122      6681  TIP3      OH2           -29.2991732485       17.1052346675       14.0637565143  SOLV      6670            0.0000000000
     20123      6681  TIP3      H1            -28.6145248589       17.7555421529       14.3212545125  SOLV      6670            0.0000000000
     20124      6681  TIP3      H2            -29.2720395056       16.4638414865       14.7929669409  SOLV      6670            0.0000000000
     20125      6682  TIP3      OH2           -30.2756032835       14.5324522948        5.7014523584  SOLV      6671            0.0000000000
     20126      6682  TIP3      H1            -30.7126260864       14.7220681637        4.8461044885  SOLV      6671            0.0000000000
     20127      6682  TIP3      H2            -30.0070442627       15.4215749706        6.0111120392  SOLV      6671            0.0000000000
     20128      6683  TIP3      OH2           -32.9974717698       16.0986449001        7.1505828883  SOLV      6672            0.0000000000
     20129      6683  TIP3      H1            -32.6779771157       16.7809686890        6.5304895353  SOLV      6672            0.0000000000
     20130      6683  TIP3      H2            -33.5437478606       16.6586663822        7.7282402849  SOLV      6672            0.0000000000
     20131      6684  TIP3      OH2           -30.2118929377       20.0500985937       14.7312835472  SOLV      6673            0.0000000000
     20132      6684  TIP3      H1            -30.6588879074       20.2815311026       15.5580163739  SOLV      6673            0.0000000000
     20133      6684  TIP3      H2            -30.4868903706       19.1329006576       14.5877080534  SOLV      6673            0.0000000000
     20134      6685  TIP3      OH2           -31.5357635657       13.9035304385        8.1471756766  SOLV      6674            0.0000000000
     20135      6685  TIP3      H1            -31.7105807661       14.8562567484        8.0320252799  SOLV      6674            0.0000000000
     20136      6685  TIP3      H2            -31.3391145082       13.7111726772        7.2088965566  SOLV      6674            0.0000000000
     20137      6686  TIP3      OH2           -24.5783269342       18.7470657496       14.6942387036  SOLV      6675            0.0000000000
     20138      6686  TIP3      H1            -25.5546850494       18.6451466047       14.7125603365  SOLV      6675            0.0000000000
     20139      6686  TIP3      H2            -24.3765884529       18.4187828091       13.8080763328  SOLV      6675            0.0000000000
     20140      6687  TIP3      OH2           -27.8494739385       20.7634545867        8.5312798987  SOLV      6676            0.0000000000
     20141      6687  TIP3      H1            -28.6549982863       20.1991828767        8.5586771929  SOLV      6676            0.0000000000
     20142      6687  TIP3      H2            -27.2268667861       20.2232270896        9.0597262992  SOLV      6676            0.0000000000
     20143      6688  TIP3      OH2           -28.2949570732       30.2740296601        8.0639994205  SOLV      6677            0.0000000000
     20144      6688  TIP3      H1            -28.7483214874       30.6966228007        7.3001573088  SOLV      6677            0.0000000000
     20145      6688  TIP3      H2            -27.3588593969       30.4786075742        7.8296963326  SOLV      6677            0.0000000000
     20146      6689  TIP3      OH2           -29.6131148497       29.6197295197       15.8514208407  SOLV      6678            0.0000000000
     20147      6689  TIP3      H1            -29.4534495120       28.7102993250       15.5710407279  SOLV      6678            0.0000000000
     20148      6689  TIP3      H2            -28.7024019684       29.9656416512       15.9782889149  SOLV      6678            0.0000000000
     20149      6690  TIP3      OH2           -31.4943637367       26.3621729623       -1.3028491231  SOLV      6679            0.0000000000
     20150      6690  TIP3      H1            -31.0550182456       25.7035834024       -0.7366043243  SOLV      6679            0.0000000000
     20151      6690  TIP3      H2            -30.9894629665       26.3098571785       -2.1388685530  SOLV      6679            0.0000000000
     20152      6691  TIP3      OH2           -27.9716174401       25.9357282627       14.1294986313  SOLV      6680            0.0000000000
     20153      6691  TIP3      H1            -27.2510733359       26.2959633753       13.5751023616  SOLV      6680            0.0000000000
     20154      6691  TIP3      H2            -28.6579883378       25.7446437547       13.4513131844  SOLV      6680            0.0000000000
     20155      6692  TIP3      OH2           -29.1131329257       24.3596309179       17.6017870850  SOLV      6681            0.0000000000
     20156      6692  TIP3      H1            -28.1980267143       24.6175981936       17.3908506651  SOLV      6681            0.0000000000
     20157      6692  TIP3      H2            -28.9485962650       23.9691920901       18.4821213504  SOLV      6681            0.0000000000
     20158      6693  TIP3      OH2           -28.1899098718       21.3823842772       -0.9555954835  SOLV      6682            0.0000000000
     20159      6693  TIP3      H1            -28.3803907121       20.9374020260       -1.8071663779  SOLV      6682            0.0000000000
     20160      6693  TIP3      H2            -28.5580412355       22.2729669123       -1.1657826917  SOLV      6682            0.0000000000
     20161      6694  TIP3      OH2           -26.9963780803       21.4615126531       18.0277320984  SOLV      6683            0.0000000000
     20162      6694  TIP3      H1            -26.4199797649       20.6852241337       18.0256761177  SOLV      6683            0.0000000000
     20163      6694  TIP3      H2            -26.4369252661       22.1162684732       17.5876452851  SOLV      6683            0.0000000000
     20164      6695  TIP3      OH2           -26.8041264495       23.9091612324       15.4397101084  SOLV      6684            0.0000000000
     20165      6695  TIP3      H1            -27.3747576259       24.6252554567       15.0704520111  SOLV      6684            0.0000000000
     20166      6695  TIP3      H2            -25.9424121844       24.1737907299       15.0449987308  SOLV      6684            0.0000000000
     20167      6696  TIP3      OH2           -28.5084641072       18.5953052286       17.1583418329  SOLV      6685            0.0000000000
     20168      6696  TIP3      H1            -29.0446867844       18.0648148288       17.7582193662  SOLV      6685            0.0000000000
     20169      6696  TIP3      H2            -27.6124544604       18.4620488493       17.5398107051  SOLV      6685            0.0000000000
     20170      6697  TIP3      OH2           -26.1714841110       18.0436588759       18.4541932409  SOLV      6686            0.0000000000
     20171      6697  TIP3      H1            -26.0390453259       17.0871625508       18.6186283807  SOLV      6686            0.0000000000
     20172      6697  TIP3      H2            -26.2154136831       18.4040434074       19.3697247214  SOLV      6686            0.0000000000
     20173      6698  TIP3      OH2           -30.9605292978       13.9335160797       18.3367853956  SOLV      6687            0.0000000000
     20174      6698  TIP3      H1            -30.2555002808       13.3183224654       18.6294134511  SOLV      6687            0.0000000000
     20175      6698  TIP3      H2            -31.7349036973       13.3306912712       18.4170548891  SOLV      6687            0.0000000000
     20176      6699  TIP3      OH2           -30.7435465722       16.3471442464       20.7141002487  SOLV      6688            0.0000000000
     20177      6699  TIP3      H1            -30.4930985515       15.4714924902       20.3828373815  SOLV      6688            0.0000000000
     20178      6699  TIP3      H2            -31.2420699618       16.6795969046       19.9467279688  SOLV      6688            0.0000000000
     20179      6700  TIP3      OH2           -25.7449332863       31.0717106562        7.6416646895  SOLV      6689            0.0000000000
     20180      6700  TIP3      H1            -25.3842344487       31.3525421160        8.5018952476  SOLV      6689            0.0000000000
     20181      6700  TIP3      H2            -25.0822520245       31.4093493311        7.0172671149  SOLV      6689            0.0000000000
     20182      6701  TIP3      OH2           -25.1960599560       31.0916852673       10.4229784059  SOLV      6690            0.0000000000
     20183      6701  TIP3      H1            -25.7210832101       30.2662141307       10.3362498604  SOLV      6690            0.0000000000
     20184      6701  TIP3      H2            -24.5195905150       30.7841421861       11.0527331757  SOLV      6690            0.0000000000
     20185      6702  TIP3      OH2           -25.0360560272       28.0418578960       16.1630287444  SOLV      6691            0.0000000000
     20186      6702  TIP3      H1            -25.7415781023       28.2311421410       16.8131998753  SOLV      6691            0.0000000000
     20187      6702  TIP3      H2            -24.6216250801       28.9222660359       16.0478337485  SOLV      6691            0.0000000000
     20188      6703  TIP3      OH2           -26.8037130419       23.2376306054        2.3338227005  SOLV      6692            0.0000000000
     20189      6703  TIP3      H1            -26.1461245397       23.8840719088        2.0017128062  SOLV      6692            0.0000000000
     20190      6703  TIP3      H2            -26.3342069725       22.8733065281        3.1180463620  SOLV      6692            0.0000000000
     20191      6704  TIP3      OH2           -25.5422230892       21.9208687393        4.3900188500  SOLV      6693            0.0000000000
     20192      6704  TIP3      H1            -26.1959000985       21.4882381298        4.9818374616  SOLV      6693            0.0000000000
     20193      6704  TIP3      H2            -24.8802291016       22.2667607540        5.0232426622  SOLV      6693            0.0000000000
     20194      6705  TIP3      OH2           -24.9767753885       25.8590295340        8.6862248015  SOLV      6694            0.0000000000
     20195      6705  TIP3      H1            -24.4623975530       25.1560890246        8.2397030670  SOLV      6694            0.0000000000
     20196      6705  TIP3      H2            -24.9299524497       26.5912471544        8.0362036341  SOLV      6694            0.0000000000
     20197      6706  TIP3      OH2           -26.6856953013       28.7834339868       10.6044372796  SOLV      6695            0.0000000000
     20198      6706  TIP3      H1            -27.3854881063       29.2888017575       11.0690212329  SOLV      6695            0.0000000000
     20199      6706  TIP3      H2            -27.2062678126       28.3294472181        9.9072653338  SOLV      6695            0.0000000000
     20200      6707  TIP3      OH2           -26.1746657281       20.9964507249        0.8425093730  SOLV      6696            0.0000000000
     20201      6707  TIP3      H1            -26.8825303047       21.0041506855        0.1585602114  SOLV      6696            0.0000000000
     20202      6707  TIP3      H2            -26.4655806771       21.7603491872        1.3823839714  SOLV      6696            0.0000000000
     20203      6708  TIP3      OH2           -27.4818166573       17.7306292005        0.3686976576  SOLV      6697            0.0000000000
     20204      6708  TIP3      H1            -27.9030715210       18.0374047302       -0.4415469788  SOLV      6697            0.0000000000
     20205      6708  TIP3      H2            -27.6958626630       16.7720182504        0.3273408351  SOLV      6697            0.0000000000
     20206      6709  TIP3      OH2           -27.3801211644       20.4894951260        5.8458536252  SOLV      6698            0.0000000000
     20207      6709  TIP3      H1            -27.3431660583       19.5224249156        5.7615340888  SOLV      6698            0.0000000000
     20208      6709  TIP3      H2            -27.5157634118       20.6092221770        6.8138548121  SOLV      6698            0.0000000000
     20209      6710  TIP3      OH2           -24.4492827577       24.7605742956       14.4061260468  SOLV      6699            0.0000000000
     20210      6710  TIP3      H1            -23.7535094484       24.0782161022       14.2747254439  SOLV      6699            0.0000000000
     20211      6710  TIP3      H2            -24.2322554102       25.4201435949       13.7301705484  SOLV      6699            0.0000000000
     20212      6711  TIP3      OH2           -22.7009996451       22.7058022793       14.4579924513  SOLV      6700            0.0000000000
     20213      6711  TIP3      H1            -23.4412215656       22.2363125997       14.9018173613  SOLV      6700            0.0000000000
     20214      6711  TIP3      H2            -21.9656012410       22.0900222606       14.6653819103  SOLV      6700            0.0000000000
     20215      6712  TIP3      OH2           -28.0522492021       15.0785939151        0.2221789777  SOLV      6701            0.0000000000
     20216      6712  TIP3      H1            -27.3532958886       14.7044683633        0.7903461547  SOLV      6701            0.0000000000
     20217      6712  TIP3      H2            -28.8229427229       14.5036532639        0.3959949096  SOLV      6701            0.0000000000
     20218      6713  TIP3      OH2           -27.4253497411       17.6559242733        4.7227924979  SOLV      6702            0.0000000000
     20219      6713  TIP3      H1            -26.9982876233       16.7760231977        4.8602467432  SOLV      6702            0.0000000000
     20220      6713  TIP3      H2            -26.8611799616       18.0027139900        4.0074425699  SOLV      6702            0.0000000000
     20221      6714  TIP3      OH2           -25.8222348825       19.2637992154        9.7312820564  SOLV      6703            0.0000000000
     20222      6714  TIP3      H1            -24.9705415046       19.5336067038        9.3189582790  SOLV      6703            0.0000000000
     20223      6714  TIP3      H2            -25.7079508706       19.6769204285       10.6080709698  SOLV      6703            0.0000000000
     20224      6715  TIP3      OH2           -25.0390212130       20.7867929789       11.9866286900  SOLV      6704            0.0000000000
     20225      6715  TIP3      H1            -25.7626254439       21.1322601633       12.5476311852  SOLV      6704            0.0000000000
     20226      6715  TIP3      H2            -24.7403502010       21.6044402783       11.5318719473  SOLV      6704            0.0000000000
     20227      6716  TIP3      OH2           -20.6678218941       16.7496091579       17.5823109913  SOLV      6705            0.0000000000
     20228      6716  TIP3      H1            -20.0355702473       16.1097056448       17.1868917065  SOLV      6705            0.0000000000
     20229      6716  TIP3      H2            -20.9571732229       17.2581364423       16.7950977255  SOLV      6705            0.0000000000
     20230      6717  TIP3      OH2           -26.3436583049       15.1819527553        5.1512917141  SOLV      6706            0.0000000000
     20231      6717  TIP3      H1            -25.8752111495       14.9964520240        5.9915885250  SOLV      6706            0.0000000000
     20232      6717  TIP3      H2            -26.9573792761       14.4192812183        5.1134983022  SOLV      6706            0.0000000000
     20233      6718  TIP3      OH2           -21.9804291140       18.1106554826       15.6116599117  SOLV      6707            0.0000000000
     20234      6718  TIP3      H1            -22.8321521020       18.5545295917       15.7974010310  SOLV      6707            0.0000000000
     20235      6718  TIP3      H2            -22.2976625235       17.3744022060       15.0505192082  SOLV      6707            0.0000000000
     20236      6719  TIP3      OH2           -25.5858389823       14.4394265802        1.5292551056  SOLV      6708            0.0000000000
     20237      6719  TIP3      H1            -25.2100918307       13.7689765350        0.9212112094  SOLV      6708            0.0000000000
     20238      6719  TIP3      H2            -24.9267290607       15.1593548701        1.4818175515  SOLV      6708            0.0000000000
     20239      6720  TIP3      OH2           -29.9653643076       29.8393266749        4.0724178466  SOLV      6709            0.0000000000
     20240      6720  TIP3      H1            -29.3942568959       29.7435294115        3.2849805164  SOLV      6709            0.0000000000
     20241      6720  TIP3      H2            -29.4488684747       30.4319260877        4.6384010755  SOLV      6709            0.0000000000
     20242      6721  TIP3      OH2           -22.9388790197       15.7447238735       14.4564272983  SOLV      6710            0.0000000000
     20243      6721  TIP3      H1            -23.8097711336       15.6663898776       14.0310958482  SOLV      6710            0.0000000000
     20244      6721  TIP3      H2            -22.5906892728       14.8259221874       14.3655502874  SOLV      6710            0.0000000000
     20245      6722  TIP3      OH2           -28.7558246603       32.2949794124        9.8367595248  SOLV      6711            0.0000000000
     20246      6722  TIP3      H1            -29.3098631241       32.7381674323        9.1815968089  SOLV      6711            0.0000000000
     20247      6722  TIP3      H2            -28.5317805102       31.4826913020        9.3283064668  SOLV      6711            0.0000000000
     20248      6723  TIP3      OH2           -30.7882575713       14.7042738264       10.9433255621  SOLV      6712            0.0000000000
     20249      6723  TIP3      H1            -31.4939198891       14.3099347889       10.4000553002  SOLV      6712            0.0000000000
     20250      6723  TIP3      H2            -30.0399027551       14.5815380637       10.3250622880  SOLV      6712            0.0000000000
     20251      6724  TIP3      OH2           -25.7282077051       13.7174313577        9.6907597919  SOLV      6713            0.0000000000
     20252      6724  TIP3      H1            -25.3365671686       14.2206501731        8.9412980773  SOLV      6713            0.0000000000
     20253      6724  TIP3      H2            -26.6678331232       13.9688551043        9.6235380826  SOLV      6713            0.0000000000
     20254      6725  TIP3      OH2           -24.7386807856       14.6534057434        7.3349491687  SOLV      6714            0.0000000000
     20255      6725  TIP3      H1            -23.9944892611       14.1446133645        6.9470361756  SOLV      6714            0.0000000000
     20256      6725  TIP3      H2            -24.4004575405       15.5701560265        7.2002018468  SOLV      6714            0.0000000000
     20257      6726  TIP3      OH2           -28.5577125166       13.8398507044        9.4874560451  SOLV      6715            0.0000000000
     20258      6726  TIP3      H1            -28.6312969431       13.5501608978        8.5669707408  SOLV      6715            0.0000000000
     20259      6726  TIP3      H2            -28.7151810655       13.0082629548        9.9834773621  SOLV      6715            0.0000000000
     20260      6727  TIP3      OH2           -28.1315754456       13.0489647735        5.0318102557  SOLV      6716            0.0000000000
     20261      6727  TIP3      H1            -28.9480500417       13.5641693301        5.2240322550  SOLV      6716            0.0000000000
     20262      6727  TIP3      H2            -28.3630529611       12.1992050524        5.4590716357  SOLV      6716            0.0000000000
     20263      6728  TIP3      OH2           -33.2673816074       13.3522353292        5.7852327997  SOLV      6717            0.0000000000
     20264      6728  TIP3      H1            -34.2411965329       13.3367251018        5.8687788337  SOLV      6717            0.0000000000
     20265      6728  TIP3      H2            -33.1657306684       14.1959703640        5.3211014334  SOLV      6717            0.0000000000
     20266      6729  TIP3      OH2           -28.3891844632       29.4885572399        1.8240401883  SOLV      6718            0.0000000000
     20267      6729  TIP3      H1            -28.4879985779       28.5085870367        1.7450518039  SOLV      6718            0.0000000000
     20268      6729  TIP3      H2            -28.8882424034       29.7854878582        1.0388894085  SOLV      6718            0.0000000000
     20269      6730  TIP3      OH2           -25.5460829554       15.3620640230       18.7666965722  SOLV      6719            0.0000000000
     20270      6730  TIP3      H1            -25.3468637950       15.0736400172       19.6842676796  SOLV      6719            0.0000000000
     20271      6730  TIP3      H2            -24.6494088157       15.3712603196       18.3643225855  SOLV      6719            0.0000000000
     20272      6731  TIP3      OH2           -26.1919027228       30.9069433967       13.6370150154  SOLV      6720            0.0000000000
     20273      6731  TIP3      H1            -26.9344268801       30.5890441615       13.0887267352  SOLV      6720            0.0000000000
     20274      6731  TIP3      H2            -26.4419821697       31.8533262267       13.7277906634  SOLV      6720            0.0000000000
     20275      6732  TIP3      OH2           -13.5198444626       24.6868832281        1.3252754722  SOLV      6721            0.0000000000
     20276      6732  TIP3      H1            -13.8519998893       25.5727349288        1.0699983872  SOLV      6721            0.0000000000
     20277      6732  TIP3      H2            -14.2478715953       24.1314402737        0.9894287645  SOLV      6721            0.0000000000
     20278      6733  TIP3      OH2           -13.4786981696       24.6750184791        5.2091945752  SOLV      6722            0.0000000000
     20279      6733  TIP3      H1            -13.1583499068       24.3709323932        6.0777584924  SOLV      6722            0.0000000000
     20280      6733  TIP3      H2            -13.9122813451       23.8779842971        4.8657959598  SOLV      6722            0.0000000000
     20281      6734  TIP3      OH2           -20.5836027707       23.5626899823        8.8539383688  SOLV      6723            0.0000000000
     20282      6734  TIP3      H1            -20.2744246048       22.8644051936        9.4606252366  SOLV      6723            0.0000000000
     20283      6734  TIP3      H2            -19.7592936379       24.0404566765        8.6833924678  SOLV      6723            0.0000000000
     20284      6735  TIP3      OH2           -11.0523270316       27.6954699714        1.9920540111  SOLV      6724            0.0000000000
     20285      6735  TIP3      H1            -11.2884776081       26.9833584035        2.6010626774  SOLV      6724            0.0000000000
     20286      6735  TIP3      H2            -10.7710118412       28.4048630524        2.5922046893  SOLV      6724            0.0000000000
     20287      6736  TIP3      OH2           -20.7997360689       27.7068767090        6.0657203083  SOLV      6725            0.0000000000
     20288      6736  TIP3      H1            -20.8818090457       26.7290567157        6.0644532314  SOLV      6725            0.0000000000
     20289      6736  TIP3      H2            -19.8427582294       27.7986424079        5.8960673825  SOLV      6725            0.0000000000
     20290      6737  TIP3      OH2           -23.7666821474       19.6641009417        3.8555552904  SOLV      6726            0.0000000000
     20291      6737  TIP3      H1            -24.2304463924       20.4952398840        4.0554141261  SOLV      6726            0.0000000000
     20292      6737  TIP3      H2            -24.4785673342       19.1755368596        3.4014128384  SOLV      6726            0.0000000000
     20293      6738  TIP3      OH2           -23.1999181052       22.5805700329        5.6964132649  SOLV      6727            0.0000000000
     20294      6738  TIP3      H1            -22.6930948174       21.7936762402        5.9987207533  SOLV      6727            0.0000000000
     20295      6738  TIP3      H2            -22.6003727334       22.9647858646        5.0421096054  SOLV      6727            0.0000000000
     20296      6739  TIP3      OH2           -14.4902283691       32.2910443768        2.2778785181  SOLV      6728            0.0000000000
     20297      6739  TIP3      H1            -14.0926912917       31.6003670762        1.7023872484  SOLV      6728            0.0000000000
     20298      6739  TIP3      H2            -14.7494651017       31.7629494953        3.0438814776  SOLV      6728            0.0000000000
     20299      6740  TIP3      OH2           -15.5754283979       26.9231719874        5.6633420706  SOLV      6729            0.0000000000
     20300      6740  TIP3      H1            -15.1962577082       26.1634459624        5.1925983363  SOLV      6729            0.0000000000
     20301      6740  TIP3      H2            -14.7407667646       27.3737032877        5.9122923292  SOLV      6729            0.0000000000
     20302      6741  TIP3      OH2            -5.3809885007       20.0863041462        5.6396557179  SOLV      6730            0.0000000000
     20303      6741  TIP3      H1             -5.0753845590       20.9306819776        6.0260544077  SOLV      6730            0.0000000000
     20304      6741  TIP3      H2             -5.1513540614       20.2111046959        4.7016176036  SOLV      6730            0.0000000000
     20305      6742  TIP3      OH2           -11.4240606560       21.8956785977        5.9394478557  SOLV      6731            0.0000000000
     20306      6742  TIP3      H1            -10.9948725283       21.0431319670        6.1459808087  SOLV      6731            0.0000000000
     20307      6742  TIP3      H2            -11.7522553532       21.7201683336        5.0360486267  SOLV      6731            0.0000000000
     20308      6743  TIP3      OH2           -17.9906021597       18.4994830822        5.5970956034  SOLV      6732            0.0000000000
     20309      6743  TIP3      H1            -18.1976178568       19.2251532964        4.9705623949  SOLV      6732            0.0000000000
     20310      6743  TIP3      H2            -18.4809882045       17.7656405182        5.1649315487  SOLV      6732            0.0000000000
     20311      6744  TIP3      OH2           -11.0679170484       19.4469396396        1.7993341463  SOLV      6733            0.0000000000
     20312      6744  TIP3      H1            -10.3619187356       19.2915788401        2.4690882120  SOLV      6733            0.0000000000
     20313      6744  TIP3      H2            -10.5256264365       19.7748792760        1.0576704397  SOLV      6733            0.0000000000
     20314      6745  TIP3      OH2           -21.7089807349       20.5106974852        6.6921274081  SOLV      6734            0.0000000000
     20315      6745  TIP3      H1            -20.8776471044       20.3304611289        7.1699281001  SOLV      6734            0.0000000000
     20316      6745  TIP3      H2            -21.5602398272       19.9633992969        5.8896556028  SOLV      6734            0.0000000000
     20317      6746  TIP3      OH2           -17.3309353145       22.4886648116        4.7120796714  SOLV      6735            0.0000000000
     20318      6746  TIP3      H1            -16.3807276633       22.2572258675        4.7885565408  SOLV      6735            0.0000000000
     20319      6746  TIP3      H2            -17.7069354007       21.6601564212        4.3431271919  SOLV      6735            0.0000000000
     20320      6747  TIP3      OH2            -4.6359798127       22.2111562563        7.3169989649  SOLV      6736            0.0000000000
     20321      6747  TIP3      H1             -5.4970435771       22.6379910117        7.1224934926  SOLV      6736            0.0000000000
     20322      6747  TIP3      H2             -4.5017066776       22.4956479432        8.2341241256  SOLV      6736            0.0000000000
     20323      6748  TIP3      OH2           -18.0781213672       18.3493276360        9.9683423488  SOLV      6737            0.0000000000
     20324      6748  TIP3      H1            -18.6678228186       18.7116415332        9.2800086298  SOLV      6737            0.0000000000
     20325      6748  TIP3      H2            -18.6172200608       18.5205105404       10.7682902176  SOLV      6737            0.0000000000
     20326      6749  TIP3      OH2           -14.5738838767       26.8668301247       -0.0323780706  SOLV      6738            0.0000000000
     20327      6749  TIP3      H1            -15.1112608686       26.6569613308       -0.8114248586  SOLV      6738            0.0000000000
     20328      6749  TIP3      H2            -15.0414987781       27.6653382439        0.3011417191  SOLV      6738            0.0000000000
     20329      6750  TIP3      OH2           -17.0009049830       26.1046884037        7.8590321965  SOLV      6739            0.0000000000
     20330      6750  TIP3      H1            -17.5974574223       26.7961902219        8.2214509842  SOLV      6739            0.0000000000
     20331      6750  TIP3      H2            -16.5962636757       26.5679651763        7.0938033360  SOLV      6739            0.0000000000
     20332      6751  TIP3      OH2            -9.0494979380       19.4973499021        3.6036204512  SOLV      6740            0.0000000000
     20333      6751  TIP3      H1             -9.1763334572       19.0245272453        4.4351481114  SOLV      6740            0.0000000000
     20334      6751  TIP3      H2             -8.5299784355       20.2746778011        3.8857395218  SOLV      6740            0.0000000000
     20335      6752  TIP3      OH2           -19.3458182504       19.4843902478        7.7854855664  SOLV      6741            0.0000000000
     20336      6752  TIP3      H1            -18.7217439846       20.2039325639        8.0298859062  SOLV      6741            0.0000000000
     20337      6752  TIP3      H2            -18.8569143436       19.0868514421        7.0283823193  SOLV      6741            0.0000000000
     20338      6753  TIP3      OH2           -18.6968157474       28.0554538230        8.9186135728  SOLV      6742            0.0000000000
     20339      6753  TIP3      H1            -18.9588221585       28.9110502429        8.5220524964  SOLV      6742            0.0000000000
     20340      6753  TIP3      H2            -19.5013693390       27.8783217978        9.4506509818  SOLV      6742            0.0000000000
     20341      6754  TIP3      OH2           -24.8498941057       24.9556288543        1.2372251666  SOLV      6743            0.0000000000
     20342      6754  TIP3      H1            -25.1983029243       25.2508001079        0.3752263404  SOLV      6743            0.0000000000
     20343      6754  TIP3      H2            -24.4876724628       25.7877392574        1.6054879101  SOLV      6743            0.0000000000
     20344      6755  TIP3      OH2           -10.4142002640       30.1364571480        3.6463605561  SOLV      6744            0.0000000000
     20345      6755  TIP3      H1            -11.3012111034       30.0151708375        4.0590713830  SOLV      6744            0.0000000000
     20346      6755  TIP3      H2            -10.5458278947       30.9883426318        3.1885452778  SOLV      6744            0.0000000000
     20347      6756  TIP3      OH2            -7.4665815417       19.1003011650        7.3016541800  SOLV      6745            0.0000000000
     20348      6756  TIP3      H1             -8.3397001025       19.3324504400        6.9432500487  SOLV      6745            0.0000000000
     20349      6756  TIP3      H2             -6.8593770653       19.4211935123        6.6021879275  SOLV      6745            0.0000000000
     20350      6757  TIP3      OH2           -14.5700305387       15.4928254145        7.1234513344  SOLV      6746            0.0000000000
     20351      6757  TIP3      H1            -14.7345995456       14.5474858927        7.3024242379  SOLV      6746            0.0000000000
     20352      6757  TIP3      H2            -15.3308554619       15.8954652249        7.5967246888  SOLV      6746            0.0000000000
     20353      6758  TIP3      OH2           -13.3761464004       30.6022018917        0.4210413579  SOLV      6747            0.0000000000
     20354      6758  TIP3      H1            -12.9201654331       29.7446246643        0.2581190577  SOLV      6747            0.0000000000
     20355      6758  TIP3      H2            -12.7421191580       31.2028099425       -0.0328952017  SOLV      6747            0.0000000000
     20356      6759  TIP3      OH2           -11.9721377090       28.4283365617       -0.5026836856  SOLV      6748            0.0000000000
     20357      6759  TIP3      H1            -12.4949790989       27.6663610542       -0.7912059292  SOLV      6748            0.0000000000
     20358      6759  TIP3      H2            -11.5580468485       28.0769575143        0.3167116009  SOLV      6748            0.0000000000
     20359      6760  TIP3      OH2            -8.1603057930       29.1940979764        7.0769019419  SOLV      6749            0.0000000000
     20360      6760  TIP3      H1             -8.2968119009       28.4090530268        6.5011163539  SOLV      6749            0.0000000000
     20361      6760  TIP3      H2             -8.3422477891       29.9281692302        6.4542693741  SOLV      6749            0.0000000000
     20362      6761  TIP3      OH2           -15.1839888357       23.1445123088       -0.2608851268  SOLV      6750            0.0000000000
     20363      6761  TIP3      H1            -16.0180025287       23.6456435363       -0.4099792970  SOLV      6750            0.0000000000
     20364      6761  TIP3      H2            -14.8063625926       23.1320223059       -1.1564922123  SOLV      6750            0.0000000000
     20365      6762  TIP3      OH2           -15.6472793113       21.0451468100       -3.2352906919  SOLV      6751            0.0000000000
     20366      6762  TIP3      H1            -14.9925130599       21.5728134410       -2.7440610621  SOLV      6751            0.0000000000
     20367      6762  TIP3      H2            -15.0519635784       20.4214563510       -3.7014531129  SOLV      6751            0.0000000000
     20368      6763  TIP3      OH2            -6.1998740758       25.6469047640        5.5790242451  SOLV      6752            0.0000000000
     20369      6763  TIP3      H1             -7.0556982404       26.1281986386        5.6011279643  SOLV      6752            0.0000000000
     20370      6763  TIP3      H2             -5.9031813715       25.8629379182        4.6689812034  SOLV      6752            0.0000000000
     20371      6764  TIP3      OH2           -11.7397613394       24.0174958731       -0.6524992725  SOLV      6753            0.0000000000
     20372      6764  TIP3      H1            -12.2916741825       24.2447390655        0.1310861799  SOLV      6753            0.0000000000
     20373      6764  TIP3      H2            -10.8990990785       23.7711638634       -0.2139870809  SOLV      6753            0.0000000000
     20374      6765  TIP3      OH2            -9.4126090480       24.3503299362        8.5581715644  SOLV      6754            0.0000000000
     20375      6765  TIP3      H1             -9.4521250421       25.1866928160        9.0569442779  SOLV      6754            0.0000000000
     20376      6765  TIP3      H2            -10.2797807521       24.3708220115        8.1036922828  SOLV      6754            0.0000000000
     20377      6766  TIP3      OH2           -19.4558138709       23.9475913441        3.5797778870  SOLV      6755            0.0000000000
     20378      6766  TIP3      H1            -19.8644621885       23.3794944210        2.8906293487  SOLV      6755            0.0000000000
     20379      6766  TIP3      H2            -18.6860288312       23.4115306687        3.8582308740  SOLV      6755            0.0000000000
     20380      6767  TIP3      OH2           -18.2000796315       28.0763762033        4.9971957275  SOLV      6756            0.0000000000
     20381      6767  TIP3      H1            -18.4553742069       27.8262344538        4.0868210783  SOLV      6756            0.0000000000
     20382      6767  TIP3      H2            -17.3299280612       27.6442664127        5.1035232098  SOLV      6756            0.0000000000
     20383      6768  TIP3      OH2           -18.1196948692       23.6719334687        7.1242810223  SOLV      6757            0.0000000000
     20384      6768  TIP3      H1            -17.7954805152       23.3844949324        6.2421591476  SOLV      6757            0.0000000000
     20385      6768  TIP3      H2            -17.6560089039       24.5261435313        7.2538252690  SOLV      6757            0.0000000000
     20386      6769  TIP3      OH2           -12.7893464926       30.0547337405        4.8948579950  SOLV      6758            0.0000000000
     20387      6769  TIP3      H1            -12.9179117531       30.8229659946        5.4749274376  SOLV      6758            0.0000000000
     20388      6769  TIP3      H2            -12.9748251342       29.2955149436        5.4850361953  SOLV      6758            0.0000000000
     20389      6770  TIP3      OH2           -16.6715678171       29.2459649057       10.3456694338  SOLV      6759            0.0000000000
     20390      6770  TIP3      H1            -17.3026442209       29.8456601071       10.7978656494  SOLV      6759            0.0000000000
     20391      6770  TIP3      H2            -17.3002330215       28.7036013530        9.8222802636  SOLV      6759            0.0000000000
     20392      6771  TIP3      OH2           -13.3599489359       22.5614427777       -2.3699242625  SOLV      6760            0.0000000000
     20393      6771  TIP3      H1            -12.7832123505       23.1863265623       -1.8778214093  SOLV      6760            0.0000000000
     20394      6771  TIP3      H2            -13.0919889547       22.7629726312       -3.3009482184  SOLV      6760            0.0000000000
     20395      6772  TIP3      OH2           -19.1034677152       24.7518942337       11.4395511252  SOLV      6761            0.0000000000
     20396      6772  TIP3      H1            -19.0746632990       25.6517907732       11.8201458406  SOLV      6761            0.0000000000
     20397      6772  TIP3      H2            -20.0575242469       24.5529023167       11.5325307884  SOLV      6761            0.0000000000
     20398      6773  TIP3      OH2           -15.8377057010       29.2383907786        0.4957815622  SOLV      6762            0.0000000000
     20399      6773  TIP3      H1            -15.1499367733       29.9268886831        0.4896270859  SOLV      6762            0.0000000000
     20400      6773  TIP3      H2            -16.5585500981       29.6178006431       -0.0229817537  SOLV      6762            0.0000000000
     20401      6774  TIP3      OH2           -18.7529934395       30.9029717558       11.2255872897  SOLV      6763            0.0000000000
     20402      6774  TIP3      H1            -19.0884562218       30.9106986396       10.3070132830  SOLV      6763            0.0000000000
     20403      6774  TIP3      H2            -19.5605066857       30.6791963378       11.7395191745  SOLV      6763            0.0000000000
     20404      6775  TIP3      OH2            -8.1862107926       14.9457859995       -1.8517138413  SOLV      6764            0.0000000000
     20405      6775  TIP3      H1             -9.0077807846       15.1796220061       -1.3740555049  SOLV      6764            0.0000000000
     20406      6775  TIP3      H2             -8.0301618588       15.7626201587       -2.3712126476  SOLV      6764            0.0000000000
     20407      6776  TIP3      OH2           -20.7634844948       22.3918354234        1.6147306294  SOLV      6765            0.0000000000
     20408      6776  TIP3      H1            -21.4259597072       22.8485373927        1.0533306619  SOLV      6765            0.0000000000
     20409      6776  TIP3      H2            -21.1277989088       21.5012778109        1.6497607073  SOLV      6765            0.0000000000
     20410      6777  TIP3      OH2           -10.1832481549       28.6024309139       -6.3802672392  SOLV      6766            0.0000000000
     20411      6777  TIP3      H1            -10.1048347713       29.5627683355       -6.5589242129  SOLV      6766            0.0000000000
     20412      6777  TIP3      H2             -9.2567073476       28.3048635077       -6.5069985243  SOLV      6766            0.0000000000
     20413      6778  TIP3      OH2           -22.9525892998       26.2391511872       10.6730467581  SOLV      6767            0.0000000000
     20414      6778  TIP3      H1            -23.6273012513       26.0361976208        9.9932704024  SOLV      6767            0.0000000000
     20415      6778  TIP3      H2            -22.5682474155       25.3599794677       10.8668536414  SOLV      6767            0.0000000000
     20416      6779  TIP3      OH2           -24.4035949616       28.1108408488        7.0359300624  SOLV      6768            0.0000000000
     20417      6779  TIP3      H1            -23.4478178514       28.0821287673        6.8891850920  SOLV      6768            0.0000000000
     20418      6779  TIP3      H2            -24.4927594750       28.9259590870        7.5525431284  SOLV      6768            0.0000000000
     20419      6780  TIP3      OH2            -5.8183373628       32.6891549707        7.5187308593  SOLV      6769            0.0000000000
     20420      6780  TIP3      H1             -5.7766312524       31.7338329672        7.7289404617  SOLV      6769            0.0000000000
     20421      6780  TIP3      H2             -6.6230783345       32.9447438624        8.0257988023  SOLV      6769            0.0000000000
     20422      6781  TIP3      OH2           -14.7225153456       30.5076547283        8.9199088601  SOLV      6770            0.0000000000
     20423      6781  TIP3      H1            -14.7617544062       31.4322899217        9.2450715107  SOLV      6770            0.0000000000
     20424      6781  TIP3      H2            -15.4481127207       30.0992188843        9.4442632652  SOLV      6770            0.0000000000
     20425      6782  TIP3      OH2           -17.0704333890       32.0593584140       -1.7619260998  SOLV      6771            0.0000000000
     20426      6782  TIP3      H1            -17.4839578738       31.5202687894       -2.4620214988  SOLV      6771            0.0000000000
     20427      6782  TIP3      H2            -17.8324463877       32.5510616618       -1.4204102968  SOLV      6771            0.0000000000
     20428      6783  TIP3      OH2           -22.8605468637       30.3757644346        2.3228248640  SOLV      6772            0.0000000000
     20429      6783  TIP3      H1            -22.2765188090       30.3059295785        3.1069771911  SOLV      6772            0.0000000000
     20430      6783  TIP3      H2            -23.2357938908       29.4790042909        2.3054743830  SOLV      6772            0.0000000000
     20431      6784  TIP3      OH2           -15.1024302775       30.9333741480       -5.2361966251  SOLV      6773            0.0000000000
     20432      6784  TIP3      H1            -14.5605488232       30.2037242999       -5.6112417834  SOLV      6773            0.0000000000
     20433      6784  TIP3      H2            -14.7823236158       30.9484061420       -4.3104772403  SOLV      6773            0.0000000000
     20434      6785  TIP3      OH2           -14.5582384241       31.3427498522       -2.5220659944  SOLV      6774            0.0000000000
     20435      6785  TIP3      H1            -15.4488195030       31.5470472515       -2.1547026285  SOLV      6774            0.0000000000
     20436      6785  TIP3      H2            -14.1817736335       30.7948820803       -1.8159161180  SOLV      6774            0.0000000000
     20437      6786  TIP3      OH2            -6.9001475922       23.9572741506       10.3172177367  SOLV      6775            0.0000000000
     20438      6786  TIP3      H1             -7.7365264807       24.0386743589        9.8346945432  SOLV      6775            0.0000000000
     20439      6786  TIP3      H2             -6.7179610959       22.9997749174       10.2238729762  SOLV      6775            0.0000000000
     20440      6787  TIP3      OH2           -20.9217389472       28.0822680573       10.5405931556  SOLV      6776            0.0000000000
     20441      6787  TIP3      H1            -20.4232046811       27.8706424420       11.3547459236  SOLV      6776            0.0000000000
     20442      6787  TIP3      H2            -21.6662816686       27.4458669601       10.5899815878  SOLV      6776            0.0000000000
     20443      6788  TIP3      OH2           -16.9205987824       16.2762131165        8.4412487202  SOLV      6777            0.0000000000
     20444      6788  TIP3      H1            -17.7983561334       15.9767951129        8.1246678262  SOLV      6777            0.0000000000
     20445      6788  TIP3      H2            -17.1933964772       17.0808997838        8.9250575329  SOLV      6777            0.0000000000
     20446      6789  TIP3      OH2           -11.5517377152       17.4286870830       10.3639961631  SOLV      6778            0.0000000000
     20447      6789  TIP3      H1            -10.8564811788       17.1357303617       10.9892703648  SOLV      6778            0.0000000000
     20448      6789  TIP3      H2            -12.3782185280       17.2312878696       10.8493710792  SOLV      6778            0.0000000000
     20449      6790  TIP3      OH2            -9.2149462231       21.7273590807        9.5520403481  SOLV      6779            0.0000000000
     20450      6790  TIP3      H1             -9.7403073614       21.7065725180       10.3843843894  SOLV      6779            0.0000000000
     20451      6790  TIP3      H2             -9.4469936391       22.5973234400        9.1761305544  SOLV      6779            0.0000000000
     20452      6791  TIP3      OH2           -12.5818746003       23.0033909091       -4.9085749161  SOLV      6780            0.0000000000
     20453      6791  TIP3      H1            -12.9438099286       22.7738773257       -5.7857529110  SOLV      6780            0.0000000000
     20454      6791  TIP3      H2            -11.7268891414       23.4043667526       -5.1601779790  SOLV      6780            0.0000000000
     20455      6792  TIP3      OH2           -15.4806251471       16.7467140992       -1.8646890406  SOLV      6781            0.0000000000
     20456      6792  TIP3      H1            -15.8459734303       16.7017467292       -0.9590003217  SOLV      6781            0.0000000000
     20457      6792  TIP3      H2            -15.8811638405       15.9370391740       -2.2400406666  SOLV      6781            0.0000000000
     20458      6793  TIP3      OH2           -17.5856372601       21.4556347201        8.6044773410  SOLV      6782            0.0000000000
     20459      6793  TIP3      H1            -18.1038225451       21.6530627981        9.4123625549  SOLV      6782            0.0000000000
     20460      6793  TIP3      H2            -17.7520759517       22.2670290652        8.0742228052  SOLV      6782            0.0000000000
     20461      6794  TIP3      OH2           -18.7506787911       20.3147811830        3.7388109518  SOLV      6783            0.0000000000
     20462      6794  TIP3      H1            -19.6832288063       20.0723997503        3.9187441063  SOLV      6783            0.0000000000
     20463      6794  TIP3      H2            -18.6397395742       19.9095073182        2.8483877064  SOLV      6783            0.0000000000
     20464      6795  TIP3      OH2           -13.8320674078       21.1374450232        1.0640630111  SOLV      6784            0.0000000000
     20465      6795  TIP3      H1            -14.3253010961       21.8530294911        0.6048538420  SOLV      6784            0.0000000000
     20466      6795  TIP3      H2            -13.2832304041       20.7810178723        0.3354765907  SOLV      6784            0.0000000000
     20467      6796  TIP3      OH2           -12.1067127090       23.9075206869       11.8616077123  SOLV      6785            0.0000000000
     20468      6796  TIP3      H1            -12.3299785131       23.1785950952       12.4819867673  SOLV      6785            0.0000000000
     20469      6796  TIP3      H2            -11.1639061369       24.0346905533       12.0775669410  SOLV      6785            0.0000000000
     20470      6797  TIP3      OH2           -12.3000397980       21.4181500497        3.3815488163  SOLV      6786            0.0000000000
     20471      6797  TIP3      H1            -12.9414857760       21.6632896967        2.6815318397  SOLV      6786            0.0000000000
     20472      6797  TIP3      H2            -11.9206210106       20.6302766695        2.9367297517  SOLV      6786            0.0000000000
     20473      6798  TIP3      OH2           -19.3922927655       21.7212563031       10.6711752507  SOLV      6787            0.0000000000
     20474      6798  TIP3      H1            -19.1048603569       22.3597932462       11.3402383730  SOLV      6787            0.0000000000
     20475      6798  TIP3      H2            -19.5015636848       20.9033614758       11.1952932839  SOLV      6787            0.0000000000
     20476      6799  TIP3      OH2           -18.9095813128       16.5180486302       -2.2243953619  SOLV      6788            0.0000000000
     20477      6799  TIP3      H1            -19.0204638042       16.5168060106       -1.2537406559  SOLV      6788            0.0000000000
     20478      6799  TIP3      H2            -19.6739386660       17.0655567680       -2.4925768932  SOLV      6788            0.0000000000
     20479      6800  TIP3      OH2           -23.4835327899       16.8891729487        6.5405259601  SOLV      6789            0.0000000000
     20480      6800  TIP3      H1            -22.7319448679       17.2476310299        7.0538588074  SOLV      6789            0.0000000000
     20481      6800  TIP3      H2            -23.0892500679       16.6589763920        5.6867490581  SOLV      6789            0.0000000000
     20482      6801  TIP3      OH2           -23.8496183352       16.7369888197        1.6863662924  SOLV      6790            0.0000000000
     20483      6801  TIP3      H1            -23.3912028443       17.0902877302        0.8931998290  SOLV      6790            0.0000000000
     20484      6801  TIP3      H2            -24.4570520163       17.4809562326        1.8569056786  SOLV      6790            0.0000000000
     20485      6802  TIP3      OH2           -12.1584743737       23.8649255525        7.6098395968  SOLV      6791            0.0000000000
     20486      6802  TIP3      H1            -11.8350054095       23.1557523667        7.0047174349  SOLV      6791            0.0000000000
     20487      6802  TIP3      H2            -12.4877540744       23.3139751452        8.3525950897  SOLV      6791            0.0000000000
     20488      6803  TIP3      OH2           -15.4109344832       18.5016091430        4.3321543736  SOLV      6792            0.0000000000
     20489      6803  TIP3      H1            -16.2287576097       18.5051258919        4.8682413550  SOLV      6792            0.0000000000
     20490      6803  TIP3      H2            -14.7201919732       18.4368392123        5.0136533343  SOLV      6792            0.0000000000
     20491      6804  TIP3      OH2           -21.1504368589       19.1023883250        4.4095689006  SOLV      6793            0.0000000000
     20492      6804  TIP3      H1            -22.0879906053       19.1758593671        4.1095731530  SOLV      6793            0.0000000000
     20493      6804  TIP3      H2            -20.9155439504       18.1872148819        4.1703156581  SOLV      6793            0.0000000000
     20494      6805  TIP3      OH2           -18.5114176483       19.0336533103        1.3345787473  SOLV      6794            0.0000000000
     20495      6805  TIP3      H1            -17.5770892827       19.1828415017        1.0966340391  SOLV      6794            0.0000000000
     20496      6805  TIP3      H2            -18.9893027665       19.2348971254        0.4950553179  SOLV      6794            0.0000000000
     20497      6806  TIP3      OH2           -10.5616819693       19.2921058772        6.3941311875  SOLV      6795            0.0000000000
     20498      6806  TIP3      H1            -10.8923944999       19.4270480380        7.3099719840  SOLV      6795            0.0000000000
     20499      6806  TIP3      H2            -11.2385579993       18.6859436173        6.0459984071  SOLV      6795            0.0000000000
     20500      6807  TIP3      OH2           -19.9616780726       19.3451669436       -0.9287770368  SOLV      6796            0.0000000000
     20501      6807  TIP3      H1            -20.6764508308       18.9231933057       -1.4374142801  SOLV      6796            0.0000000000
     20502      6807  TIP3      H2            -19.4444380744       19.7563344134       -1.6537959037  SOLV      6796            0.0000000000
     20503      6808  TIP3      OH2            -8.9688780191       36.2019914571        8.5036327697  SOLV      6797            0.0000000000
     20504      6808  TIP3      H1             -9.0490434153       36.4317156538        7.5629422842  SOLV      6797            0.0000000000
     20505      6808  TIP3      H2             -8.1240443459       36.6548554429        8.7105864685  SOLV      6797            0.0000000000
     20506      6809  TIP3      OH2           -19.2875955807       27.2842012673       12.7498015849  SOLV      6798            0.0000000000
     20507      6809  TIP3      H1            -18.4909525260       27.5661746866       13.2410750696  SOLV      6798            0.0000000000
     20508      6809  TIP3      H2            -19.9349500123       27.2345793821       13.4811045720  SOLV      6798            0.0000000000
     20509      6810  TIP3      OH2           -14.6692502048       21.8289846489        5.3236421634  SOLV      6799            0.0000000000
     20510      6810  TIP3      H1            -13.9337350492       21.4433618497        4.8241847403  SOLV      6799            0.0000000000
     20511      6810  TIP3      H2            -14.6205963734       21.3516774253        6.1725898410  SOLV      6799            0.0000000000
     20512      6811  TIP3      OH2           -19.4757070807       16.6844426225        4.1464876915  SOLV      6800            0.0000000000
     20513      6811  TIP3      H1            -19.8406178971       15.9167804976        4.6383445822  SOLV      6800            0.0000000000
     20514      6811  TIP3      H2            -19.0728851673       16.2535112720        3.3805184269  SOLV      6800            0.0000000000
     20515      6812  TIP3      OH2           -14.9021954214       20.8182217439        8.1932317967  SOLV      6801            0.0000000000
     20516      6812  TIP3      H1            -15.8084826103       21.1568748393        8.3410912378  SOLV      6801            0.0000000000
     20517      6812  TIP3      H2            -14.3449214741       21.4428752368        8.6966678871  SOLV      6801            0.0000000000
     20518      6813  TIP3      OH2           -17.4583567214       24.6180862164       -0.7860685160  SOLV      6802            0.0000000000
     20519      6813  TIP3      H1            -18.3241875371       24.2646902550       -1.0615881435  SOLV      6802            0.0000000000
     20520      6813  TIP3      H2            -17.7108980984       25.0574688148        0.0624307424  SOLV      6802            0.0000000000
     20521      6814  TIP3      OH2            -8.5672799851       27.0462466503        5.4122341868  SOLV      6803            0.0000000000
     20522      6814  TIP3      H1             -8.3445078854       27.5542360923        4.6055740062  SOLV      6803            0.0000000000
     20523      6814  TIP3      H2             -9.3990296121       26.5909356293        5.1485116230  SOLV      6803            0.0000000000
     20524      6815  TIP3      OH2           -12.9603387927       17.7456302613       -2.1116179180  SOLV      6804            0.0000000000
     20525      6815  TIP3      H1            -13.9255132374       17.5483869379       -2.0600530337  SOLV      6804            0.0000000000
     20526      6815  TIP3      H2            -12.9122654439       18.6980279921       -1.8974113003  SOLV      6804            0.0000000000
     20527      6816  TIP3      OH2           -13.4771415141       27.9237693611        9.1094490820  SOLV      6805            0.0000000000
     20528      6816  TIP3      H1            -13.2419381422       27.6801396776       10.0127242628  SOLV      6805            0.0000000000
     20529      6816  TIP3      H2            -13.9393377972       28.7723331198        9.2199182658  SOLV      6805            0.0000000000
     20530      6817  TIP3      OH2           -12.2878131634       20.2960803328       -1.1195872788  SOLV      6806            0.0000000000
     20531      6817  TIP3      H1            -11.3211909742       20.3618406839       -1.0003804071  SOLV      6806            0.0000000000
     20532      6817  TIP3      H2            -12.4939913717       21.0955976095       -1.6441734700  SOLV      6806            0.0000000000
     20533      6818  TIP3      OH2           -20.6019865639       24.9237831801        5.8998912881  SOLV      6807            0.0000000000
     20534      6818  TIP3      H1            -20.2499482815       24.6574867147        5.0241536282  SOLV      6807            0.0000000000
     20535      6818  TIP3      H2            -20.1193466395       24.3266856419        6.4896380449  SOLV      6807            0.0000000000
     20536      6819  TIP3      OH2           -16.1197122825       26.1925851798       -2.5946875953  SOLV      6808            0.0000000000
     20537      6819  TIP3      H1            -16.5712234745       27.0661174747       -2.5345074607  SOLV      6808            0.0000000000
     20538      6819  TIP3      H2            -16.6830317357       25.6531768241       -1.9960922892  SOLV      6808            0.0000000000
     20539      6820  TIP3      OH2           -21.7660106366       24.0984609499       12.0514569773  SOLV      6809            0.0000000000
     20540      6820  TIP3      H1            -21.6292047811       23.9330889640       13.0043886158  SOLV      6809            0.0000000000
     20541      6820  TIP3      H2            -22.4738238520       23.4625422193       11.8443411407  SOLV      6809            0.0000000000
     20542      6821  TIP3      OH2           -14.5014742948       25.2927837011       12.2315695794  SOLV      6810            0.0000000000
     20543      6821  TIP3      H1            -15.1319988622       24.6878175835       11.8077889542  SOLV      6810            0.0000000000
     20544      6821  TIP3      H2            -13.6476708168       24.8998123877       11.9475059303  SOLV      6810            0.0000000000
     20545      6822  TIP3      OH2           -11.9597404519       30.6204238722        8.0514170052  SOLV      6811            0.0000000000
     20546      6822  TIP3      H1            -12.9061801383       30.4746811102        8.2271860253  SOLV      6811            0.0000000000
     20547      6822  TIP3      H2            -11.6866606470       31.0620641100        8.8827292241  SOLV      6811            0.0000000000
     20548      6823  TIP3      OH2            -7.8878125376       21.2389217325       -2.8067736769  SOLV      6812            0.0000000000
     20549      6823  TIP3      H1             -8.5001301996       20.8034867059       -3.4475360900  SOLV      6812            0.0000000000
     20550      6823  TIP3      H2             -7.9043866849       22.1346897856       -3.2082397084  SOLV      6812            0.0000000000
     20551      6824  TIP3      OH2            -5.6631088843       29.8384910687        7.9401296388  SOLV      6813            0.0000000000
     20552      6824  TIP3      H1             -6.6379907024       29.7352440823        7.8718437223  SOLV      6813            0.0000000000
     20553      6824  TIP3      H2             -5.3954135869       29.5029253805        7.0547834584  SOLV      6813            0.0000000000
     20554      6825  TIP3      OH2           -10.7627571768       29.3799381263       -3.6951649464  SOLV      6814            0.0000000000
     20555      6825  TIP3      H1            -11.1254120075       28.7288594620       -3.0747017370  SOLV      6814            0.0000000000
     20556      6825  TIP3      H2            -10.7064021893       28.8755435645       -4.5263574479  SOLV      6814            0.0000000000
     20557      6826  TIP3      OH2           -10.8746915599       25.6772429905        4.5859073849  SOLV      6815            0.0000000000
     20558      6826  TIP3      H1            -11.8114040587       25.4332151649        4.7273760559  SOLV      6815            0.0000000000
     20559      6826  TIP3      H2            -10.5497464463       24.8668613339        4.1430562933  SOLV      6815            0.0000000000
     20560      6827  TIP3      OH2           -19.5156076437       27.8883642419        2.3867756389  SOLV      6816            0.0000000000
     20561      6827  TIP3      H1            -19.5945754671       28.7435777036        1.8992302897  SOLV      6816            0.0000000000
     20562      6827  TIP3      H2            -20.3175052527       27.4536188342        2.0688921607  SOLV      6816            0.0000000000
     20563      6828  TIP3      OH2           -23.9174063208       20.9823356016       -0.7580597623  SOLV      6817            0.0000000000
     20564      6828  TIP3      H1            -23.4735521669       21.8326931372       -0.5522120757  SOLV      6817            0.0000000000
     20565      6828  TIP3      H2            -24.6853600522       21.0215344628       -0.1463406239  SOLV      6817            0.0000000000
     20566      6829  TIP3      OH2           -18.1525264388       25.5898630868        1.6506979197  SOLV      6818            0.0000000000
     20567      6829  TIP3      H1            -18.4932081260       26.4955406874        1.7804754840  SOLV      6818            0.0000000000
     20568      6829  TIP3      H2            -18.5921001218       25.1105966881        2.3734143352  SOLV      6818            0.0000000000
     20569      6830  TIP3      OH2           -16.8588883734       31.3637803144        6.8707531656  SOLV      6819            0.0000000000
     20570      6830  TIP3      H1            -16.4403968581       32.0699727389        6.3356671030  SOLV      6819            0.0000000000
     20571      6830  TIP3      H2            -16.0864493581       30.9713472528        7.3075777890  SOLV      6819            0.0000000000
     20572      6831  TIP3      OH2           -20.2084663105       30.2323483718        1.1806824287  SOLV      6820            0.0000000000
     20573      6831  TIP3      H1            -21.1730515250       30.3189482165        1.1458973582  SOLV      6820            0.0000000000
     20574      6831  TIP3      H2            -19.9269723400       31.0963078162        0.8216301155  SOLV      6820            0.0000000000
     20575      6832  TIP3      OH2           -13.0356036268       27.7290003230        6.4380972703  SOLV      6821            0.0000000000
     20576      6832  TIP3      H1            -13.1410458631       27.7162838925        7.4172093518  SOLV      6821            0.0000000000
     20577      6832  TIP3      H2            -12.2962334880       27.1171145937        6.3168300910  SOLV      6821            0.0000000000
     20578      6833  TIP3      OH2           -13.2470002856       26.7329539311       -4.7252750709  SOLV      6822            0.0000000000
     20579      6833  TIP3      H1            -12.7181505515       26.4477663660       -3.9425167803  SOLV      6822            0.0000000000
     20580      6833  TIP3      H2            -14.1213896291       26.3861537310       -4.4847701563  SOLV      6822            0.0000000000
     20581      6834  TIP3      OH2           -10.5442860377       33.0179090784        6.9108954919  SOLV      6823            0.0000000000
     20582      6834  TIP3      H1            -11.3125504701       32.4111968418        6.9433095787  SOLV      6823            0.0000000000
     20583      6834  TIP3      H2            -10.8184722794       33.6413961920        6.2103042141  SOLV      6823            0.0000000000
     20584      6835  TIP3      OH2            -9.9065884094       31.3683005460       -6.5644023437  SOLV      6824            0.0000000000
     20585      6835  TIP3      H1             -9.3792302452       32.1581495526       -6.7899407560  SOLV      6824            0.0000000000
     20586      6835  TIP3      H2            -10.7161597614       31.7963418048       -6.2254922862  SOLV      6824            0.0000000000
     20587      6836  TIP3      OH2           -19.7169828895       19.1607154337       12.0959884589  SOLV      6825            0.0000000000
     20588      6836  TIP3      H1            -20.6868534175       19.1583000124       12.2121855263  SOLV      6825            0.0000000000
     20589      6836  TIP3      H2            -19.4295718703       18.6083999179       12.8407870720  SOLV      6825            0.0000000000
     20590      6837  TIP3      OH2           -11.6275554057       25.9888397066       -2.6241688438  SOLV      6826            0.0000000000
     20591      6837  TIP3      H1            -11.7635020136       25.3568871625       -1.8903594443  SOLV      6826            0.0000000000
     20592      6837  TIP3      H2            -10.6525132456       25.9403983907       -2.7110374763  SOLV      6826            0.0000000000
     20593      6838  TIP3      OH2           -22.5250824506       29.9560246663        8.4281745107  SOLV      6827            0.0000000000
     20594      6838  TIP3      H1            -21.9469831728       29.2723991479        8.8058101505  SOLV      6827            0.0000000000
     20595      6838  TIP3      H2            -22.2359221672       30.7470671472        8.9076254314  SOLV      6827            0.0000000000
     20596      6839  TIP3      OH2           -19.5571201719       26.4014448590       -4.8512770562  SOLV      6828            0.0000000000
     20597      6839  TIP3      H1            -19.4915490598       25.4300446257       -4.8388783433  SOLV      6828            0.0000000000
     20598      6839  TIP3      H2            -19.7788978543       26.5856309714       -3.9062997731  SOLV      6828            0.0000000000
     20599      6840  TIP3      OH2           -22.8317169822       23.4225650116        0.0629411008  SOLV      6829            0.0000000000
     20600      6840  TIP3      H1            -23.5057778598       23.9022530944        0.5864981175  SOLV      6829            0.0000000000
     20601      6840  TIP3      H2            -22.6343461464       24.0929056620       -0.6212039420  SOLV      6829            0.0000000000
     20602      6841  TIP3      OH2           -11.2978884514       19.8206622165        9.0022395193  SOLV      6830            0.0000000000
     20603      6841  TIP3      H1            -10.4643149272       20.1795733354        9.3492859879  SOLV      6830            0.0000000000
     20604      6841  TIP3      H2            -11.4128569859       19.0007615397        9.5306348478  SOLV      6830            0.0000000000
     20605      6842  TIP3      OH2           -12.4860003515       17.2599093656        0.6775580274  SOLV      6831            0.0000000000
     20606      6842  TIP3      H1            -12.6272444739       17.4582307399       -0.2691302026  SOLV      6831            0.0000000000
     20607      6842  TIP3      H2            -12.0997451591       18.1001995478        1.0056466391  SOLV      6831            0.0000000000
     20608      6843  TIP3      OH2           -17.4835342666       28.5155233503       -2.3673223759  SOLV      6832            0.0000000000
     20609      6843  TIP3      H1            -18.3340242709       28.0803052302       -2.1163252500  SOLV      6832            0.0000000000
     20610      6843  TIP3      H2            -17.7968813963       29.2075730725       -2.9682850233  SOLV      6832            0.0000000000
     20611      6844  TIP3      OH2           -15.6589982798       19.1383748177        1.6470579706  SOLV      6833            0.0000000000
     20612      6844  TIP3      H1            -15.0198671434       19.8634920453        1.4773183637  SOLV      6833            0.0000000000
     20613      6844  TIP3      H2            -15.5862888398       19.0450094723        2.6209014215  SOLV      6833            0.0000000000
     20614      6845  TIP3      OH2           -12.9221009744       22.2651390116        9.6715404141  SOLV      6834            0.0000000000
     20615      6845  TIP3      H1            -12.6534853500       22.7560598262       10.4740322500  SOLV      6834            0.0000000000
     20616      6845  TIP3      H2            -12.4072983822       21.4403529275        9.7446534826  SOLV      6834            0.0000000000
     20617      6846  TIP3      OH2           -14.2341753023       16.3008907392        2.6243715046  SOLV      6835            0.0000000000
     20618      6846  TIP3      H1            -14.3293752720       17.0974938246        3.1783692978  SOLV      6835            0.0000000000
     20619      6846  TIP3      H2            -13.5924049708       16.6273629751        1.9502234525  SOLV      6835            0.0000000000
     20620      6847  TIP3      OH2           -19.0736992675       16.3905242803        0.5454915648  SOLV      6836            0.0000000000
     20621      6847  TIP3      H1            -19.0956132843       17.2964961598        0.9124008459  SOLV      6836            0.0000000000
     20622      6847  TIP3      H2            -18.1103127959       16.2172244037        0.6106011541  SOLV      6836            0.0000000000
     20623      6848  TIP3      OH2            -6.5477394370       21.2979363064        9.5149930657  SOLV      6837            0.0000000000
     20624      6848  TIP3      H1             -7.5276925053       21.2961145741        9.5978791929  SOLV      6837            0.0000000000
     20625      6848  TIP3      H2             -6.4535246487       20.7910833063        8.6963621258  SOLV      6837            0.0000000000
     20626      6849  TIP3      OH2           -10.0282059639       23.2359495226        3.3930702620  SOLV      6838            0.0000000000
     20627      6849  TIP3      H1            -10.7942060873       22.6431425746        3.4974089848  SOLV      6838            0.0000000000
     20628      6849  TIP3      H2             -9.3237079910       22.7510604058        3.8747224654  SOLV      6838            0.0000000000
     20629      6850  TIP3      OH2           -22.9187093478       25.4802592891       -1.9213253658  SOLV      6839            0.0000000000
     20630      6850  TIP3      H1            -22.1997354992       26.1433226522       -1.7787040393  SOLV      6839            0.0000000000
     20631      6850  TIP3      H2            -22.4693277345       24.9360191178       -2.6025093988  SOLV      6839            0.0000000000
     20632      6851  TIP3      OH2           -23.5016264900       18.2717053939       -0.5476151248  SOLV      6840            0.0000000000
     20633      6851  TIP3      H1            -23.4587759495       19.2485754114       -0.5693443320  SOLV      6840            0.0000000000
     20634      6851  TIP3      H2            -24.2506102847       18.0968622277       -1.1285584781  SOLV      6840            0.0000000000
     20635      6852  TIP3      OH2           -10.3430116262       32.8698665352        2.9289313572  SOLV      6841            0.0000000000
     20636      6852  TIP3      H1            -10.7715536730       33.3110183703        2.1613963709  SOLV      6841            0.0000000000
     20637      6852  TIP3      H2             -9.3997802612       33.0254234133        2.6955241636  SOLV      6841            0.0000000000
     20638      6853  TIP3      OH2           -19.5742264641       15.4836445446        8.1256855284  SOLV      6842            0.0000000000
     20639      6853  TIP3      H1            -19.8694020560       15.1404987792        7.2549709130  SOLV      6842            0.0000000000
     20640      6853  TIP3      H2            -19.6893374812       14.7026760601        8.7027628966  SOLV      6842            0.0000000000
     20641      6854  TIP3      OH2           -24.1611228952       27.6401568229        1.9660960414  SOLV      6843            0.0000000000
     20642      6854  TIP3      H1            -24.8999951995       27.9897358055        2.4797249453  SOLV      6843            0.0000000000
     20643      6854  TIP3      H2            -24.3700498491       28.0151954729        1.0805327284  SOLV      6843            0.0000000000
     20644      6855  TIP3      OH2           -22.6293461278       32.9342178008       12.8724584523  SOLV      6844            0.0000000000
     20645      6855  TIP3      H1            -21.7523968887       32.8597243388       13.3047998840  SOLV      6844            0.0000000000
     20646      6855  TIP3      H2            -22.8923076230       31.9954556240       12.8145837576  SOLV      6844            0.0000000000
     20647      6856  TIP3      OH2           -17.8148251203       32.7179157762       13.0881615345  SOLV      6845            0.0000000000
     20648      6856  TIP3      H1            -16.8854844126       32.4584164657       13.1553349699  SOLV      6845            0.0000000000
     20649      6856  TIP3      H2            -18.1225737490       32.0950937086       12.3949620721  SOLV      6845            0.0000000000
     20650      6857  TIP3      OH2           -18.0216069201       28.4435879787       -5.6517973608  SOLV      6846            0.0000000000
     20651      6857  TIP3      H1            -18.6521923150       27.7613898830       -5.3093273562  SOLV      6846            0.0000000000
     20652      6857  TIP3      H2            -17.2490597285       27.8758265070       -5.7957871774  SOLV      6846            0.0000000000
     20653      6858  TIP3      OH2           -11.4417878809       31.8264726370       10.4848629855  SOLV      6847            0.0000000000
     20654      6858  TIP3      H1            -11.4993914081       31.1178067531       11.1684318300  SOLV      6847            0.0000000000
     20655      6858  TIP3      H2            -10.6519192347       32.3228797931       10.7746149970  SOLV      6847            0.0000000000
     20656      6859  TIP3      OH2           -13.6466682236       28.8733482991       -6.4263254098  SOLV      6848            0.0000000000
     20657      6859  TIP3      H1            -13.3377530462       28.1709095985       -5.8135331220  SOLV      6848            0.0000000000
     20658      6859  TIP3      H2            -13.0412158250       28.7738692556       -7.1832431622  SOLV      6848            0.0000000000
     20659      6860  TIP3      OH2           -21.3004354474       27.1733484835       14.6683535525  SOLV      6849            0.0000000000
     20660      6860  TIP3      H1            -21.1659906919       26.2114185662       14.7675132276  SOLV      6849            0.0000000000
     20661      6860  TIP3      H2            -22.1689513240       27.2045401001       14.2103339605  SOLV      6849            0.0000000000
     20662      6861  TIP3      OH2           -21.5352319929       23.5966725512       -3.3409059664  SOLV      6850            0.0000000000
     20663      6861  TIP3      H1            -20.9584171655       23.3850921977       -2.5774063168  SOLV      6850            0.0000000000
     20664      6861  TIP3      H2            -20.8521393452       23.6663511329       -4.0424923606  SOLV      6850            0.0000000000
     20665      6862  TIP3      OH2           -15.2526676090       28.0502567813       12.4141509088  SOLV      6851            0.0000000000
     20666      6862  TIP3      H1            -15.6731695136       28.2511590006       11.5535222183  SOLV      6851            0.0000000000
     20667      6862  TIP3      H2            -14.9512000015       27.1237139431       12.2978288790  SOLV      6851            0.0000000000
     20668      6863  TIP3      OH2           -16.2877789816       25.7024133965       -5.2973255589  SOLV      6852            0.0000000000
     20669      6863  TIP3      H1            -16.3586790086       25.8002132206       -4.3240773676  SOLV      6852            0.0000000000
     20670      6863  TIP3      H2            -16.3285881855       24.7236990780       -5.3761295754  SOLV      6852            0.0000000000
     20671      6864  TIP3      OH2           -10.3037090764       28.1584888704        8.5227445745  SOLV      6853            0.0000000000
     20672      6864  TIP3      H1             -9.5516680821       28.5858336259        8.0693291792  SOLV      6853            0.0000000000
     20673      6864  TIP3      H2            -11.0246301298       28.7774410665        8.3166300249  SOLV      6853            0.0000000000
     20674      6865  TIP3      OH2           -20.1028759870       24.5574357434       14.5301573785  SOLV      6854            0.0000000000
     20675      6865  TIP3      H1            -19.3326628618       24.0665407255       14.2197024593  SOLV      6854            0.0000000000
     20676      6865  TIP3      H2            -19.7972856100       24.8670412414       15.4093749614  SOLV      6854            0.0000000000
     20677      6866  TIP3      OH2           -19.6483240146       22.7111347452       -1.3211530119  SOLV      6855            0.0000000000
     20678      6866  TIP3      H1            -19.7402554363       22.3776249338       -0.4169753525  SOLV      6855            0.0000000000
     20679      6866  TIP3      H2            -19.1706428399       21.9807770356       -1.7637138591  SOLV      6855            0.0000000000
     20680      6867  TIP3      OH2           -16.7462807663       23.3532598398       11.1357971839  SOLV      6856            0.0000000000
     20681      6867  TIP3      H1            -17.5418800899       23.9285161466       11.1219309112  SOLV      6856            0.0000000000
     20682      6867  TIP3      H2            -16.2321314194       23.7093068140       10.3727994543  SOLV      6856            0.0000000000
     20683      6868  TIP3      OH2           -18.4134153484       20.6446410842       -2.7783973831  SOLV      6857            0.0000000000
     20684      6868  TIP3      H1            -18.6611419405       20.7577095496       -3.7190908308  SOLV      6857            0.0000000000
     20685      6868  TIP3      H2            -17.4353045115       20.6579503651       -2.8466850307  SOLV      6857            0.0000000000
     20686      6869  TIP3      OH2           -11.5568947059       27.3844726801       12.4438835523  SOLV      6858            0.0000000000
     20687      6869  TIP3      H1            -10.8218031266       27.0141802644       11.9382035683  SOLV      6858            0.0000000000
     20688      6869  TIP3      H2            -11.6512417017       26.7344356711       13.1644652160  SOLV      6858            0.0000000000
     20689      6870  TIP3      OH2           -10.2619633358       23.9368357518       -6.0911970204  SOLV      6859            0.0000000000
     20690      6870  TIP3      H1            -10.4385907155       23.4954843702       -6.9469645726  SOLV      6859            0.0000000000
     20691      6870  TIP3      H2            -10.6211125779       24.8299914786       -6.3018522888  SOLV      6859            0.0000000000
     20692      6871  TIP3      OH2           -15.5142527130       21.2562584723       12.3452697943  SOLV      6860            0.0000000000
     20693      6871  TIP3      H1            -15.5129709705       20.4722516570       11.7580667875  SOLV      6860            0.0000000000
     20694      6871  TIP3      H2            -15.9607152733       21.9293820874       11.7837283134  SOLV      6860            0.0000000000
     20695      6872  TIP3      OH2           -15.4962270256       19.1275722417       10.4654804540  SOLV      6861            0.0000000000
     20696      6872  TIP3      H1            -15.2075949553       19.5265951991        9.6222077338  SOLV      6861            0.0000000000
     20697      6872  TIP3      H2            -16.4282633836       18.8934762743       10.2662738232  SOLV      6861            0.0000000000
     20698      6873  TIP3      OH2           -15.2763265039       24.4689859599        9.2089741076  SOLV      6862            0.0000000000
     20699      6873  TIP3      H1            -14.4205997662       24.5804819701        8.7766201740  SOLV      6862            0.0000000000
     20700      6873  TIP3      H2            -15.8452920595       25.0971642757        8.7131296368  SOLV      6862            0.0000000000
     20701      6874  TIP3      OH2            -9.4473026243       24.0984764875       12.9508340609  SOLV      6863            0.0000000000
     20702      6874  TIP3      H1             -8.9813579811       23.2558075868       13.0686914367  SOLV      6863            0.0000000000
     20703      6874  TIP3      H2             -8.7526747304       24.6584964319       12.5762149958  SOLV      6863            0.0000000000
     20704      6875  TIP3      OH2            -9.0175596569       26.6688174820       10.3666927251  SOLV      6864            0.0000000000
     20705      6875  TIP3      H1             -9.5900604066       27.2169595362        9.7791274718  SOLV      6864            0.0000000000
     20706      6875  TIP3      H2             -8.1375053679       26.8722055103        9.9784223566  SOLV      6864            0.0000000000
     20707      6876  TIP3      OH2           -16.7225359314       22.2853987202       14.7168460108  SOLV      6865            0.0000000000
     20708      6876  TIP3      H1            -17.4027948690       21.5986335227       14.8738990332  SOLV      6865            0.0000000000
     20709      6876  TIP3      H2            -16.4115254534       22.0469340055       13.8209907177  SOLV      6865            0.0000000000
     20710      6877  TIP3      OH2           -14.1822588553       16.7221522669       11.1600468547  SOLV      6866            0.0000000000
     20711      6877  TIP3      H1            -14.6895990808       17.5271724709       10.9242055827  SOLV      6866            0.0000000000
     20712      6877  TIP3      H2            -14.8578550085       16.0228917579       11.0436845091  SOLV      6866            0.0000000000
     20713      6878  TIP3      OH2           -12.9302378134       21.7330342406       13.2945483748  SOLV      6867            0.0000000000
     20714      6878  TIP3      H1            -13.0995436053       21.5647256953       14.2406795184  SOLV      6867            0.0000000000
     20715      6878  TIP3      H2            -13.8165985243       21.5091611867       12.9363393026  SOLV      6867            0.0000000000
     20716      6879  TIP3      OH2           -10.5364841289       21.2964743706       11.8607454707  SOLV      6868            0.0000000000
     20717      6879  TIP3      H1            -11.2799380059       21.2788095380       12.4957799343  SOLV      6868            0.0000000000
     20718      6879  TIP3      H2             -9.7867025907       20.9807401997       12.4068966281  SOLV      6868            0.0000000000
     20719      6880  TIP3      OH2            -8.2387221203       20.6954735739       13.3270256301  SOLV      6869            0.0000000000
     20720      6880  TIP3      H1             -8.1040845525       19.7330630328       13.4645791681  SOLV      6869            0.0000000000
     20721      6880  TIP3      H2             -8.2736751121       21.0375869517       14.2442149942  SOLV      6869            0.0000000000
     20722      6881  TIP3      OH2           -18.3590258930       20.0973810954       15.2596484194  SOLV      6870            0.0000000000
     20723      6881  TIP3      H1            -18.3286467089       19.1756643958       14.9352662902  SOLV      6870            0.0000000000
     20724      6881  TIP3      H2            -17.9715576219       19.9855244914       16.1526403418  SOLV      6870            0.0000000000
     20725      6882  TIP3      OH2           -13.2608495494       16.8260435362       13.7446560262  SOLV      6871            0.0000000000
     20726      6882  TIP3      H1            -12.6038074488       16.1037256251       13.6780325367  SOLV      6871            0.0000000000
     20727      6882  TIP3      H2            -13.6519634016       16.7874042608       12.8479540665  SOLV      6871            0.0000000000
     20728      6883  TIP3      OH2           -12.5668586854       18.9746440261       15.3087451858  SOLV      6872            0.0000000000
     20729      6883  TIP3      H1            -12.7749212446       18.2535153008       14.6735887795  SOLV      6872            0.0000000000
     20730      6883  TIP3      H2            -13.3631238663       19.5414927528       15.2405946238  SOLV      6872            0.0000000000
     20731      6884  TIP3      OH2           -20.3628556038       31.5532401016       -3.7065643159  SOLV      6873            0.0000000000
     20732      6884  TIP3      H1            -19.5026787426       31.1491418149       -3.5300164355  SOLV      6873            0.0000000000
     20733      6884  TIP3      H2            -20.2880755814       31.6938292280       -4.6608724204  SOLV      6873            0.0000000000
     20734      6885  TIP3      OH2           -25.5938867303       25.0831148001       -1.5464656633  SOLV      6874            0.0000000000
     20735      6885  TIP3      H1            -24.6431342221       25.2941884806       -1.6960072376  SOLV      6874            0.0000000000
     20736      6885  TIP3      H2            -25.6505539785       24.1891469611       -1.9460853738  SOLV      6874            0.0000000000
     20737      6886  TIP3      OH2           -26.4483185300       31.2927399246        2.5785866303  SOLV      6875            0.0000000000
     20738      6886  TIP3      H1            -27.0561332693       30.6235572679        2.1927063762  SOLV      6875            0.0000000000
     20739      6886  TIP3      H2            -25.9739539191       30.7293922429        3.2322778966  SOLV      6875            0.0000000000
     20740      6887  TIP3      OH2           -25.1659107966       29.7559695736        4.4638739993  SOLV      6876            0.0000000000
     20741      6887  TIP3      H1            -25.2410429959       28.9866491147        5.0477753871  SOLV      6876            0.0000000000
     20742      6887  TIP3      H2            -24.5589828272       30.3148485500        4.9844202553  SOLV      6876            0.0000000000
     20743      6888  TIP3      OH2            -7.7817218939       33.6795265334        2.4932361449  SOLV      6877            0.0000000000
     20744      6888  TIP3      H1             -7.3772008970       33.7396413387        3.3788070633  SOLV      6877            0.0000000000
     20745      6888  TIP3      H2             -7.0513493188       33.9339951405        1.9042035462  SOLV      6877            0.0000000000
     20746      6889  TIP3      OH2            -7.1407812718       33.5332036032        5.2190978345  SOLV      6878            0.0000000000
     20747      6889  TIP3      H1             -7.7398635056       32.7497957997        5.1946556551  SOLV      6878            0.0000000000
     20748      6889  TIP3      H2             -6.5570691511       33.2479193869        5.9507313820  SOLV      6878            0.0000000000
     20749      6890  TIP3      OH2            -7.0493096052       30.6900451466       11.0228130047  SOLV      6879            0.0000000000
     20750      6890  TIP3      H1             -7.7525278610       30.7939723910       11.6946987960  SOLV      6879            0.0000000000
     20751      6890  TIP3      H2             -6.5895497005       31.5516952246       11.0845452736  SOLV      6879            0.0000000000
     20752      6891  TIP3      OH2            -8.8517492920       25.7952037152       -2.7822774075  SOLV      6880            0.0000000000
     20753      6891  TIP3      H1             -8.1865423660       26.4370280842       -3.0991473568  SOLV      6880            0.0000000000
     20754      6891  TIP3      H2             -8.4015069552       25.4242434428       -1.9905788141  SOLV      6880            0.0000000000
     20755      6892  TIP3      OH2            -7.5805277469       24.4841962242       -0.7239835375  SOLV      6881            0.0000000000
     20756      6892  TIP3      H1             -8.2640596244       24.0578512180       -0.1604649887  SOLV      6881            0.0000000000
     20757      6892  TIP3      H2             -6.9454935545       24.8257959441       -0.0636094589  SOLV      6881            0.0000000000
     20758      6893  TIP3      OH2            -6.9959296803       28.4360206352        3.5746345884  SOLV      6882            0.0000000000
     20759      6893  TIP3      H1             -6.4899467689       27.7113514778        3.1503246472  SOLV      6882            0.0000000000
     20760      6893  TIP3      H2             -7.0754590657       29.0858397097        2.8527664872  SOLV      6882            0.0000000000
     20761      6894  TIP3      OH2            -8.7774091592       31.3764637293        5.4821930671  SOLV      6883            0.0000000000
     20762      6894  TIP3      H1             -9.4937250034       31.7869143009        6.0052494777  SOLV      6883            0.0000000000
     20763      6894  TIP3      H2             -9.2834311434       30.9139498388        4.7757077392  SOLV      6883            0.0000000000
     20764      6895  TIP3      OH2            -8.2160556011       23.5740505090       -4.3046150280  SOLV      6884            0.0000000000
     20765      6895  TIP3      H1             -8.9338544036       23.5689947106       -4.9779473358  SOLV      6884            0.0000000000
     20766      6895  TIP3      H2             -8.5246976906       24.3184946739       -3.7478214635  SOLV      6884            0.0000000000
     20767      6896  TIP3      OH2            -9.5230643396       20.3003473250       -4.7621152842  SOLV      6885            0.0000000000
     20768      6896  TIP3      H1             -9.9536512276       20.5933737419       -5.5725756767  SOLV      6885            0.0000000000
     20769      6896  TIP3      H2             -9.7299862688       19.3393667117       -4.7909448438  SOLV      6885            0.0000000000
     20770      6897  TIP3      OH2            -9.4716088076       23.0768811907        0.6942248788  SOLV      6886            0.0000000000
     20771      6897  TIP3      H1             -9.4091778028       22.1129482150        0.5799788043  SOLV      6886            0.0000000000
     20772      6897  TIP3      H2             -9.6201433997       23.1654967984        1.6620730290  SOLV      6886            0.0000000000
     20773      6898  TIP3      OH2           -23.2286768246       23.7715279206        8.2047932342  SOLV      6887            0.0000000000
     20774      6898  TIP3      H1            -23.2569302720       23.4285240551        7.2856917559  SOLV      6887            0.0000000000
     20775      6898  TIP3      H2            -22.2539989487       23.7918038757        8.3558537868  SOLV      6887            0.0000000000
     20776      6899  TIP3      OH2            -6.5452133992       27.3200893174        9.2942597375  SOLV      6888            0.0000000000
     20777      6899  TIP3      H1             -5.8525627529       26.6310668151        9.1785597559  SOLV      6888            0.0000000000
     20778      6899  TIP3      H2             -6.3041751692       27.9712749929        8.6181458635  SOLV      6888            0.0000000000
     20779      6900  TIP3      OH2            -4.7451186942       25.2934136533        9.3403882448  SOLV      6889            0.0000000000
     20780      6900  TIP3      H1             -5.4892289439       24.8013733749        9.7508659960  SOLV      6889            0.0000000000
     20781      6900  TIP3      H2             -4.0083413443       24.6732545680        9.5326480607  SOLV      6889            0.0000000000
     20782      6901  TIP3      OH2           -10.0949743053       17.6504252864       -4.9010880194  SOLV      6890            0.0000000000
     20783      6901  TIP3      H1             -9.3733128766       17.2832014284       -4.3548962012  SOLV      6890            0.0000000000
     20784      6901  TIP3      H2            -10.8359612815       17.0390877836       -4.7489059786  SOLV      6890            0.0000000000
     20785      6902  TIP3      OH2            -9.4646469740       20.2473681605       -0.3829599450  SOLV      6891            0.0000000000
     20786      6902  TIP3      H1             -9.0706315438       19.3545250445       -0.2309925790  SOLV      6891            0.0000000000
     20787      6902  TIP3      H2             -8.8971684672       20.5522717615       -1.1139825570  SOLV      6891            0.0000000000
     20788      6903  TIP3      OH2            -7.9050050653       21.9074740010        4.6117251223  SOLV      6892            0.0000000000
     20789      6903  TIP3      H1             -7.0515283186       22.1466983594        4.1832398180  SOLV      6892            0.0000000000
     20790      6903  TIP3      H2             -7.7425064606       22.2854605312        5.4974649754  SOLV      6892            0.0000000000
     20791      6904  TIP3      OH2            -7.1533104812       23.3962124381        6.8899774064  SOLV      6893            0.0000000000
     20792      6904  TIP3      H1             -7.9287082409       23.7281314398        7.3800504406  SOLV      6893            0.0000000000
     20793      6904  TIP3      H2             -6.8274941580       24.2131900019        6.4548344710  SOLV      6893            0.0000000000
     20794      6905  TIP3      OH2           -21.0187948847       20.6135465177       14.8905518823  SOLV      6894            0.0000000000
     20795      6905  TIP3      H1            -20.0407407173       20.5702933915       14.9580262816  SOLV      6894            0.0000000000
     20796      6905  TIP3      H2            -21.2562950694       19.7475070374       15.2789327463  SOLV      6894            0.0000000000
     20797      6906  TIP3      OH2            -2.6728341368       19.3406315404       12.4484011820  SOLV      6895            0.0000000000
     20798      6906  TIP3      H1             -2.0529237648       18.6988958234       12.0379426258  SOLV      6895            0.0000000000
     20799      6906  TIP3      H2             -2.9862116353       19.8421121782       11.6652017300  SOLV      6895            0.0000000000
     20800      6907  TIP3      OH2            -8.4167088083       17.7394035723        0.0285693981  SOLV      6896            0.0000000000
     20801      6907  TIP3      H1             -7.9358860185       17.5625631456        0.8636003928  SOLV      6896            0.0000000000
     20802      6907  TIP3      H2             -9.0267378647       16.9729043251        0.0050515275  SOLV      6896            0.0000000000
     20803      6908  TIP3      OH2           -21.4077992753       17.5816590150        8.2565401183  SOLV      6897            0.0000000000
     20804      6908  TIP3      H1            -20.7965908639       16.8204782895        8.3134088576  SOLV      6897            0.0000000000
     20805      6908  TIP3      H2            -20.7779144349       18.3145715894        8.1405040935  SOLV      6897            0.0000000000
     20806      6909  TIP3      OH2           -23.3947187551       20.2909324898        8.9531480226  SOLV      6898            0.0000000000
     20807      6909  TIP3      H1            -22.9046479076       20.2606708713        8.1071654957  SOLV      6898            0.0000000000
     20808      6909  TIP3      H2            -23.1333363129       21.1525380592        9.2958631498  SOLV      6898            0.0000000000
     20809      6910  TIP3      OH2            -4.0000794149       20.6636432400       10.4705007757  SOLV      6899            0.0000000000
     20810      6910  TIP3      H1             -4.8497421231       21.1120669804       10.6561834296  SOLV      6899            0.0000000000
     20811      6910  TIP3      H2             -4.3272706915       19.9238313053        9.9191846559  SOLV      6899            0.0000000000
     20812      6911  TIP3      OH2            -7.6330685177       17.0105264855       -3.6157347203  SOLV      6900            0.0000000000
     20813      6911  TIP3      H1             -7.2558044731       16.3228933897       -4.2043187550  SOLV      6900            0.0000000000
     20814      6911  TIP3      H2             -6.9565575181       17.7143367058       -3.6557342211  SOLV      6900            0.0000000000
     20815      6912  TIP3      OH2           -23.5325750593       15.3385453724        3.9727551781  SOLV      6901            0.0000000000
     20816      6912  TIP3      H1            -24.4628104957       15.2684236986        4.2460921717  SOLV      6901            0.0000000000
     20817      6912  TIP3      H2            -23.5984679912       15.9267637649        3.1899096881  SOLV      6901            0.0000000000
     20818      6913  TIP3      OH2           -11.8989022756       32.3938027665       -0.9783293549  SOLV      6902            0.0000000000
     20819      6913  TIP3      H1            -11.3874545634       32.2759906093       -1.8041575666  SOLV      6902            0.0000000000
     20820      6913  TIP3      H2            -11.3444370618       33.0054224909       -0.4729503882  SOLV      6902            0.0000000000
     20821      6914  TIP3      OH2           -21.3221684331       16.1300636236       12.1072264108  SOLV      6903            0.0000000000
     20822      6914  TIP3      H1            -21.8411008958       16.1171685542       12.9262087437  SOLV      6903            0.0000000000
     20823      6914  TIP3      H2            -21.9727532756       16.5064593838       11.4815299552  SOLV      6903            0.0000000000
     20824      6915  TIP3      OH2           -20.9412175214       30.4982280533       12.9130601971  SOLV      6904            0.0000000000
     20825      6915  TIP3      H1            -21.8458567059       30.2092079462       12.6908070138  SOLV      6904            0.0000000000
     20826      6915  TIP3      H2            -20.8444431986       30.1638746319       13.8141284786  SOLV      6904            0.0000000000
     20827      6916  TIP3      OH2           -19.0955512638       30.7569542624        8.3961371310  SOLV      6905            0.0000000000
     20828      6916  TIP3      H1            -19.5697391750       31.5143262162        7.9972651852  SOLV      6905            0.0000000000
     20829      6916  TIP3      H2            -18.2415516835       30.8862528594        7.9344330791  SOLV      6905            0.0000000000
     20830      6917  TIP3      OH2           -14.7698405065       33.1646530339        9.7328383811  SOLV      6906            0.0000000000
     20831      6917  TIP3      H1            -14.3370355698       33.1779721577       10.6125262735  SOLV      6906            0.0000000000
     20832      6917  TIP3      H2            -14.1241404046       33.6824998950        9.2036802682  SOLV      6906            0.0000000000
     20833      6918  TIP3      OH2           -12.9966245478       34.6783489941        8.3112753581  SOLV      6907            0.0000000000
     20834      6918  TIP3      H1            -12.3274475420       34.1296670905        7.8784719776  SOLV      6907            0.0000000000
     20835      6918  TIP3      H2            -12.4318553477       35.2221314096        8.9074322792  SOLV      6907            0.0000000000
     20836      6919  TIP3      OH2            -4.9866303609       18.2919765674        9.3192088680  SOLV      6908            0.0000000000
     20837      6919  TIP3      H1             -5.8805090330       18.1645001522        8.9554379822  SOLV      6908            0.0000000000
     20838      6919  TIP3      H2             -4.6240761090       17.3781808523        9.2379679858  SOLV      6908            0.0000000000
     20839      6920  TIP3      OH2           -22.1451123771       32.9781115104        8.6354659548  SOLV      6909            0.0000000000
     20840      6920  TIP3      H1            -23.0852154004       33.2179337820        8.4772959253  SOLV      6909            0.0000000000
     20841      6920  TIP3      H2            -21.9573423532       33.5812448961        9.3833267568  SOLV      6909            0.0000000000
     20842      6921  TIP3      OH2           -19.8420047741       33.1041808395        7.2375501391  SOLV      6910            0.0000000000
     20843      6921  TIP3      H1            -20.7310280997       33.0863574662        7.6589890773  SOLV      6910            0.0000000000
     20844      6921  TIP3      H2            -20.0679695717       33.4181535378        6.3359636025  SOLV      6910            0.0000000000
     20845      6922  TIP3      OH2           -15.7918686674       33.3441947162        5.2097928865  SOLV      6911            0.0000000000
     20846      6922  TIP3      H1            -16.5218633905       33.4784682735        4.5714803313  SOLV      6911            0.0000000000
     20847      6922  TIP3      H2            -15.6775468818       34.2482303609        5.5769484763  SOLV      6911            0.0000000000
     20848      6923  TIP3      OH2           -13.1180591519       32.8041615026        5.7071844859  SOLV      6912            0.0000000000
     20849      6923  TIP3      H1            -14.0813060640       32.8818086367        5.5509408752  SOLV      6912            0.0000000000
     20850      6923  TIP3      H2            -12.7884241136       33.5360564051        5.1745058529  SOLV      6912            0.0000000000
     20851      6924  TIP3      OH2           -10.9278993659       34.7767305095        4.7404909735  SOLV      6913            0.0000000000
     20852      6924  TIP3      H1            -11.4196766732       35.3509582256        4.1373022200  SOLV      6913            0.0000000000
     20853      6924  TIP3      H2            -10.6648114050       34.0497402318        4.1259958152  SOLV      6913            0.0000000000
     20854      6925  TIP3      OH2           -23.3467410605       31.1548783824        6.0747268058  SOLV      6914            0.0000000000
     20855      6925  TIP3      H1            -23.0407685632       30.8501084347        6.9567777804  SOLV      6914            0.0000000000
     20856      6925  TIP3      H2            -22.6165440406       30.7828076007        5.5255799853  SOLV      6914            0.0000000000
     20857      6926  TIP3      OH2           -21.3626238427       30.0045985803        4.6308588800  SOLV      6915            0.0000000000
     20858      6926  TIP3      H1            -21.1842989599       29.1484736306        5.0847117196  SOLV      6915            0.0000000000
     20859      6926  TIP3      H2            -20.4544905761       30.3352237553        4.4899959579  SOLV      6915            0.0000000000
     20860      6927  TIP3      OH2           -18.6262856546       30.9479288743        4.6385925080  SOLV      6916            0.0000000000
     20861      6927  TIP3      H1            -18.3815433600       30.0263775928        4.4381589099  SOLV      6916            0.0000000000
     20862      6927  TIP3      H2            -18.1776397463       31.0576773573        5.4974971338  SOLV      6916            0.0000000000
     20863      6928  TIP3      OH2           -12.9128374347       17.4715187331        5.5591645485  SOLV      6917            0.0000000000
     20864      6928  TIP3      H1            -13.3421141102       16.7416362859        6.0388965705  SOLV      6917            0.0000000000
     20865      6928  TIP3      H2            -12.1822929450       17.0190728867        5.0939016787  SOLV      6917            0.0000000000
     20866      6929  TIP3      OH2            -7.7469945866       16.3231632776        4.5779620897  SOLV      6918            0.0000000000
     20867      6929  TIP3      H1             -7.3854952574       16.8074478489        3.8025305563  SOLV      6918            0.0000000000
     20868      6929  TIP3      H2             -8.7047701864       16.4707446242        4.4771088566  SOLV      6918            0.0000000000
     20869      6930  TIP3      OH2            -6.7793557959       17.2492161508        2.1991885538  SOLV      6919            0.0000000000
     20870      6930  TIP3      H1             -6.0400035633       16.7299464050        1.8149025915  SOLV      6919            0.0000000000
     20871      6930  TIP3      H2             -6.4372305010       18.1620898210        2.0537237506  SOLV      6919            0.0000000000
     20872      6931  TIP3      OH2           -20.4616028695       14.5483506801        5.6543819704  SOLV      6920            0.0000000000
     20873      6931  TIP3      H1            -21.3915599412       14.2371957154        5.6911150435  SOLV      6920            0.0000000000
     20874      6931  TIP3      H2            -19.9936819690       13.6872747336        5.6020734539  SOLV      6920            0.0000000000
     20875      6932  TIP3      OH2           -22.4875072240       13.2758410240        2.1956404789  SOLV      6921            0.0000000000
     20876      6932  TIP3      H1            -22.2276862237       13.8235659166        1.4334491633  SOLV      6921            0.0000000000
     20877      6932  TIP3      H2            -22.7832615105       13.9493498175        2.8390473294  SOLV      6921            0.0000000000
     20878      6933  TIP3      OH2           -15.9562579154       14.8413748190        4.4999076927  SOLV      6922            0.0000000000
     20879      6933  TIP3      H1            -15.4322460656       15.3025658059        3.8243317430  SOLV      6922            0.0000000000
     20880      6933  TIP3      H2            -15.6650303642       15.2802761535        5.3124574570  SOLV      6922            0.0000000000
     20881      6934  TIP3      OH2           -10.5877031946       16.3503878288        4.2953981883  SOLV      6923            0.0000000000
     20882      6934  TIP3      H1            -10.5394245207       15.9232260329        3.4293148535  SOLV      6923            0.0000000000
     20883      6934  TIP3      H2            -10.6839278985       15.5690393196        4.8906456086  SOLV      6923            0.0000000000
     20884      6935  TIP3      OH2           -10.2400376926       15.6133567432       -0.0494624195  SOLV      6924            0.0000000000
     20885      6935  TIP3      H1            -11.1022979744       16.0367271498        0.1191006196  SOLV      6924            0.0000000000
     20886      6935  TIP3      H2            -10.3774787019       14.7427561725        0.3827689312  SOLV      6924            0.0000000000
     20887      6936  TIP3      OH2           -25.4367961466       28.8682869753       -0.0417919976  SOLV      6925            0.0000000000
     20888      6936  TIP3      H1            -26.3153250714       28.5317113326       -0.2856054527  SOLV      6925            0.0000000000
     20889      6936  TIP3      H2            -25.5129754167       29.7842242200       -0.3665212666  SOLV      6925            0.0000000000
     20890      6937  TIP3      OH2           -21.3688671944       14.8022912546       -0.2118826987  SOLV      6926            0.0000000000
     20891      6937  TIP3      H1            -20.9022401893       14.1840827225       -0.8090152627  SOLV      6926            0.0000000000
     20892      6937  TIP3      H2            -20.6276939452       15.3469487447        0.1215245160  SOLV      6926            0.0000000000
     20893      6938  TIP3      OH2           -16.3109853570       16.6348068935        0.7663227714  SOLV      6927            0.0000000000
     20894      6938  TIP3      H1            -15.6983727004       16.1556497292        1.3494992832  SOLV      6927            0.0000000000
     20895      6938  TIP3      H2            -16.0824577783       17.5582109867        1.0152811962  SOLV      6927            0.0000000000
     20896      6939  TIP3      OH2           -17.7097478561       30.7321733416       -4.1924559242  SOLV      6928            0.0000000000
     20897      6939  TIP3      H1            -16.8410891844       30.9710853353       -4.5704291418  SOLV      6928            0.0000000000
     20898      6939  TIP3      H2            -17.9541907299       30.0164903171       -4.8227840760  SOLV      6928            0.0000000000
     20899      6940  TIP3      OH2           -10.4227907446       32.0421481811       -3.2903315214  SOLV      6929            0.0000000000
     20900      6940  TIP3      H1            -10.4956021382       31.0578179762       -3.3595461949  SOLV      6929            0.0000000000
     20901      6940  TIP3      H2            -10.9144484505       32.3134123720       -4.0892295115  SOLV      6929            0.0000000000
     20902      6941  TIP3      OH2           -18.3801351976       17.3513463872       14.5910186603  SOLV      6930            0.0000000000
     20903      6941  TIP3      H1            -18.7400941161       16.6367142488       15.1461165828  SOLV      6930            0.0000000000
     20904      6941  TIP3      H2            -17.4392544815       17.3395183542       14.8749782046  SOLV      6930            0.0000000000
     20905      6942  TIP3      OH2           -15.8626683608       17.3472936377       15.7635985076  SOLV      6931            0.0000000000
     20906      6942  TIP3      H1            -15.0156291854       17.0812526921       15.3665789093  SOLV      6931            0.0000000000
     20907      6942  TIP3      H2            -15.9848870675       16.6490981718       16.4414969067  SOLV      6931            0.0000000000
     20908      6943  TIP3      OH2           -24.6009751583       29.2880182899       -3.5557786070  SOLV      6932            0.0000000000
     20909      6943  TIP3      H1            -24.4567477043       29.2202738793       -2.6035170040  SOLV      6932            0.0000000000
     20910      6943  TIP3      H2            -23.7705767904       28.8723552526       -3.8970572020  SOLV      6932            0.0000000000
     20911      6944  TIP3      OH2            -7.5882145810       17.9881336275       13.6289399682  SOLV      6933            0.0000000000
     20912      6944  TIP3      H1             -7.4239291067       17.6708166174       14.5438364644  SOLV      6933            0.0000000000
     20913      6944  TIP3      H2             -6.6914345381       17.9235559310       13.2368037027  SOLV      6933            0.0000000000
     20914      6945  TIP3      OH2            -8.2761100829       33.5140931714        8.5387534863  SOLV      6934            0.0000000000
     20915      6945  TIP3      H1             -9.0556109095       33.1751891770        8.0531065302  SOLV      6934            0.0000000000
     20916      6945  TIP3      H2             -8.5276529320       34.4544762282        8.6332195742  SOLV      6934            0.0000000000
     20917      6946  TIP3      OH2             4.4342110702       27.2189498321       -3.7884212388  SOLV      6935            0.0000000000
     20918      6946  TIP3      H1              4.0991694243       28.1114594572       -4.0161714689  SOLV      6935            0.0000000000
     20919      6946  TIP3      H2              3.7251238860       26.6752278590       -4.1798464311  SOLV      6935            0.0000000000
     20920      6947  TIP3      OH2             4.4279645181       27.2625413930        0.1071720890  SOLV      6936            0.0000000000
     20921      6947  TIP3      H1              4.7856012403       26.9338528394        0.9524110490  SOLV      6936            0.0000000000
     20922      6947  TIP3      H2              4.0430061783       26.4563264812       -0.2720355233  SOLV      6936            0.0000000000
     20923      6948  TIP3      OH2            -2.6214397909       26.1253300631        3.7041284667  SOLV      6937            0.0000000000
     20924      6948  TIP3      H1             -2.3407716557       25.4192774543        4.3165023298  SOLV      6937            0.0000000000
     20925      6948  TIP3      H2             -1.7892556576       26.6058804674        3.5896688992  SOLV      6937            0.0000000000
     20926      6949  TIP3      OH2             6.8677323843       30.2561727359       -3.1195551916  SOLV      6938            0.0000000000
     20927      6949  TIP3      H1              6.7145795631       29.5417647253       -2.4883030489  SOLV      6938            0.0000000000
     20928      6949  TIP3      H2              7.2317997567       30.9620454562       -2.5600627041  SOLV      6938            0.0000000000
     20929      6950  TIP3      OH2            -2.8572571699       30.2951338357        0.9398601386  SOLV      6939            0.0000000000
     20930      6950  TIP3      H1             -2.9316435872       29.3138336647        0.9177444788  SOLV      6939            0.0000000000
     20931      6950  TIP3      H2             -1.8918710784       30.3852749991        0.8362028327  SOLV      6939            0.0000000000
     20932      6951  TIP3      OH2            -5.7982913779       22.2650239696       -1.2793425010  SOLV      6940            0.0000000000
     20933      6951  TIP3      H1             -6.3013797811       23.0751825561       -1.0865661287  SOLV      6940            0.0000000000
     20934      6951  TIP3      H2             -6.4921385755       21.7307686931       -1.7084389748  SOLV      6940            0.0000000000
     20935      6952  TIP3      OH2            -5.2192849678       25.1471013512        0.5781034600  SOLV      6941            0.0000000000
     20936      6952  TIP3      H1             -4.7337149867       24.3499507864        0.8903710471  SOLV      6941            0.0000000000
     20937      6952  TIP3      H2             -4.6731364337       25.4277553489       -0.1671802518  SOLV      6941            0.0000000000
     20938      6953  TIP3      OH2             3.4339597175       34.8214598677       -2.8651536260  SOLV      6942            0.0000000000
     20939      6953  TIP3      H1              3.7924767833       34.1421783731       -3.4763486518  SOLV      6942            0.0000000000
     20940      6953  TIP3      H2              3.3107653088       34.2960229168       -2.0639545165  SOLV      6942            0.0000000000
     20941      6954  TIP3      OH2             2.3925019693       29.5047217923        0.5246646620  SOLV      6943            0.0000000000
     20942      6954  TIP3      H1              2.7810490467       28.7127248319        0.1138756161  SOLV      6943            0.0000000000
     20943      6954  TIP3      H2              3.2265253001       29.9674613952        0.7540207814  SOLV      6943            0.0000000000
     20944      6955  TIP3      OH2            12.5835887329       22.6546468069        0.5088091376  SOLV      6944            0.0000000000
     20945      6955  TIP3      H1             12.8864835041       23.4981856668        0.8999031551  SOLV      6944            0.0000000000
     20946      6955  TIP3      H2             12.7900170136       22.7963451145       -0.4317387462  SOLV      6944            0.0000000000
     20947      6956  TIP3      OH2             6.5355694242       24.4674235266        0.8036314820  SOLV      6945            0.0000000000
     20948      6956  TIP3      H1              6.9621168964       23.6140625571        1.0122478630  SOLV      6945            0.0000000000
     20949      6956  TIP3      H2              6.2031508000       24.2890088619       -0.0979133983  SOLV      6945            0.0000000000
     20950      6957  TIP3      OH2            -0.0266585177       21.0698914422        0.4567457272  SOLV      6946            0.0000000000
     20951      6957  TIP3      H1             -0.2400091176       21.7899960595       -0.1730315110  SOLV      6946            0.0000000000
     20952      6957  TIP3      H2             -0.5055710960       20.3268404769        0.0265868833  SOLV      6946            0.0000000000
     20953      6958  TIP3      OH2             6.8943248629       22.0292822810       -3.3203557655  SOLV      6947            0.0000000000
     20954      6958  TIP3      H1              7.6118926445       21.8674117034       -2.6653292447  SOLV      6947            0.0000000000
     20955      6958  TIP3      H2              7.4224972136       22.3489478324       -4.0757797123  SOLV      6947            0.0000000000
     20956      6959  TIP3      OH2            -3.7441081251       23.0682193642        1.5586249404  SOLV      6948            0.0000000000
     20957      6959  TIP3      H1             -2.9130413454       22.8790734201        2.0341450431  SOLV      6948            0.0000000000
     20958      6959  TIP3      H2             -3.6036387715       22.5172640488        0.7571931272  SOLV      6948            0.0000000000
     20959      6960  TIP3      OH2             0.6277453825       25.0577667072       -0.4283276306  SOLV      6949            0.0000000000
     20960      6960  TIP3      H1              1.5780907039       24.8268895993       -0.3427377560  SOLV      6949            0.0000000000
     20961      6960  TIP3      H2              0.2543825552       24.2217246419       -0.7839709196  SOLV      6949            0.0000000000
     20962      6961  TIP3      OH2            13.3274291532       24.7692364391        2.1877869218  SOLV      6950            0.0000000000
     20963      6961  TIP3      H1             12.4743949021       25.2057675017        1.9795980941  SOLV      6950            0.0000000000
     20964      6961  TIP3      H2             13.4375685562       25.0339595971        3.1133601741  SOLV      6950            0.0000000000
     20965      6962  TIP3      OH2            -0.1129337398       20.9129771307        4.8362623307  SOLV      6951            0.0000000000
     20966      6962  TIP3      H1             -0.7099610988       21.2682903419        4.1510893502  SOLV      6951            0.0000000000
     20967      6962  TIP3      H2             -0.6511758815       21.0756952177        5.6385096056  SOLV      6951            0.0000000000
     20968      6963  TIP3      OH2             3.2392948460       29.3731874909       -5.0611109146  SOLV      6952            0.0000000000
     20969      6963  TIP3      H1              2.9164161291       29.2610588690       -5.9669919902  SOLV      6952            0.0000000000
     20970      6963  TIP3      H2              2.7973035820       30.2053253181       -4.7970666065  SOLV      6952            0.0000000000
     20971      6964  TIP3      OH2             0.9683405219       28.6722803175        2.7178038638  SOLV      6953            0.0000000000
     20972      6964  TIP3      H1              0.3655089039       29.3560682921        3.0831022908  SOLV      6953            0.0000000000
     20973      6964  TIP3      H2              1.3726743624       29.1399991789        1.9563157795  SOLV      6953            0.0000000000
     20974      6965  TIP3      OH2             8.9291914791       22.0568862753       -1.5302587446  SOLV      6954            0.0000000000
     20975      6965  TIP3      H1              8.7814384809       21.5870325665       -0.7004957619  SOLV      6954            0.0000000000
     20976      6965  TIP3      H2              9.4362669487       22.8391090465       -1.2390291971  SOLV      6954            0.0000000000
     20977      6966  TIP3      OH2            -1.3812643700       22.0483921093        2.6494406775  SOLV      6955            0.0000000000
     20978      6966  TIP3      H1             -0.7514093197       22.7604766570        2.9000324409  SOLV      6955            0.0000000000
     20979      6966  TIP3      H2             -0.8928811250       21.6488580908        1.8928851371  SOLV      6955            0.0000000000
     20980      6967  TIP3      OH2            -0.7490606914       30.6143138416        3.7655381300  SOLV      6956            0.0000000000
     20981      6967  TIP3      H1             -1.0143627922       31.4908561691        3.4191007516  SOLV      6956            0.0000000000
     20982      6967  TIP3      H2             -1.5317509534       30.4187876249        4.3229836261  SOLV      6956            0.0000000000
     20983      6968  TIP3      OH2            -6.8691899696       27.5254489889       -3.9042048795  SOLV      6957            0.0000000000
     20984      6968  TIP3      H1             -7.2700085063       27.8047462151       -4.7478553196  SOLV      6957            0.0000000000
     20985      6968  TIP3      H2             -6.5178882674       28.3652303643       -3.5528089785  SOLV      6957            0.0000000000
     20986      6969  TIP3      OH2             7.5179826499       32.6882739924       -1.4778024915  SOLV      6958            0.0000000000
     20987      6969  TIP3      H1              6.6076650912       32.6029856143       -1.1157248285  SOLV      6958            0.0000000000
     20988      6969  TIP3      H2              7.4527365662       33.5411327991       -1.9495508865  SOLV      6958            0.0000000000
     20989      6970  TIP3      OH2            10.4933969427       21.6688879275        2.1691997759  SOLV      6959            0.0000000000
     20990      6970  TIP3      H1              9.6194456982       21.9001369929        1.8118429362  SOLV      6959            0.0000000000
     20991      6970  TIP3      H2             11.0991545375       21.9909731765        1.4693320167  SOLV      6959            0.0000000000
     20992      6971  TIP3      OH2             3.3955618575       18.0484901381        2.0043705624  SOLV      6960            0.0000000000
     20993      6971  TIP3      H1              3.2262761460       17.1016800517        2.1766636459  SOLV      6960            0.0000000000
     20994      6971  TIP3      H2              2.6297285156       18.4497499800        2.4710035921  SOLV      6960            0.0000000000
     20995      6972  TIP3      OH2             4.4923563828       33.1349922822       -4.7905162926  SOLV      6961            0.0000000000
     20996      6972  TIP3      H1              4.9786123506       32.2876197118       -4.9459484327  SOLV      6961            0.0000000000
     20997      6972  TIP3      H2              5.1470737337       33.7552186828       -5.1856874025  SOLV      6961            0.0000000000
     20998      6973  TIP3      OH2             5.9274675081       30.9847884970       -5.6084478046  SOLV      6962            0.0000000000
     20999      6973  TIP3      H1              5.7608929663       30.1745547545       -6.1091905039  SOLV      6962            0.0000000000
     21000      6973  TIP3      H2              6.3251211541       30.6294642658       -4.7819357634  SOLV      6962            0.0000000000
     21001      6974  TIP3      OH2             9.8121342713       31.7343406951        1.9780466959  SOLV      6963            0.0000000000
     21002      6974  TIP3      H1              9.6919891872       30.9652134388        1.3769711123  SOLV      6963            0.0000000000
     21003      6974  TIP3      H2              9.6281061820       32.4819440734        1.3682146619  SOLV      6963            0.0000000000
     21004      6975  TIP3      OH2             2.7644407871       25.7572036932       -5.4409214421  SOLV      6964            0.0000000000
     21005      6975  TIP3      H1              1.9641293042       26.2662130794       -5.6743054298  SOLV      6964            0.0000000000
     21006      6975  TIP3      H2              3.1657676305       25.6050428573       -6.3165827792  SOLV      6964            0.0000000000
     21007      6976  TIP3      OH2             2.2995464305       23.6169595965       -8.1574509472  SOLV      6965            0.0000000000
     21008      6976  TIP3      H1              3.0982089779       24.1004743988       -7.8797629609  SOLV      6965            0.0000000000
     21009      6976  TIP3      H2              2.7009365008       22.9482453359       -8.7446474011  SOLV      6965            0.0000000000
     21010      6977  TIP3      OH2            11.7562019112       28.2086419855        0.4584176032  SOLV      6966            0.0000000000
     21011      6977  TIP3      H1             10.9038636577       28.6965357964        0.4665347295  SOLV      6966            0.0000000000
     21012      6977  TIP3      H2             12.0688318928       28.4319504328       -0.4469944802  SOLV      6966            0.0000000000
     21013      6978  TIP3      OH2             6.2325197400       26.5991224517       -5.7765988006  SOLV      6967            0.0000000000
     21014      6978  TIP3      H1              5.6857479479       26.8083135091       -4.9850379533  SOLV      6967            0.0000000000
     21015      6978  TIP3      H2              7.0744449290       26.3383053096       -5.3472311002  SOLV      6967            0.0000000000
     21016      6979  TIP3      OH2             8.5484751205       26.9107823308        3.4248557549  SOLV      6968            0.0000000000
     21017      6979  TIP3      H1              8.5070669066       27.7478128424        3.9211680998  SOLV      6968            0.0000000000
     21018      6979  TIP3      H2              7.6857575901       26.9324384314        2.9627118748  SOLV      6968            0.0000000000
     21019      6980  TIP3      OH2            -1.4668120059       26.5247562958       -1.5560024899  SOLV      6969            0.0000000000
     21020      6980  TIP3      H1             -1.9019530817       25.9398633492       -2.2154507418  SOLV      6969            0.0000000000
     21021      6980  TIP3      H2             -0.7183945688       25.9688292043       -1.2529872125  SOLV      6969            0.0000000000
     21022      6981  TIP3      OH2            -0.1801723173       30.6631078930       -0.1182424577  SOLV      6970            0.0000000000
     21023      6981  TIP3      H1             -0.3955044951       30.3463295328       -1.0117394221  SOLV      6970            0.0000000000
     21024      6981  TIP3      H2              0.7023210317       30.2649711885        0.0341204403  SOLV      6970            0.0000000000
     21025      6982  TIP3      OH2            -0.1347498428       26.2263460086        1.9959460724  SOLV      6971            0.0000000000
     21026      6982  TIP3      H1              0.1817459196       25.9347351084        1.1130239933  SOLV      6971            0.0000000000
     21027      6982  TIP3      H2              0.3250249904       27.0828847784        2.1173535407  SOLV      6971            0.0000000000
     21028      6983  TIP3      OH2             5.0911112152       32.6467811543       -0.2677736774  SOLV      6972            0.0000000000
     21029      6983  TIP3      H1              5.0466191711       33.4043560917        0.3385519192  SOLV      6972            0.0000000000
     21030      6983  TIP3      H2              4.9793008763       31.8799739678        0.3305446835  SOLV      6972            0.0000000000
     21031      6984  TIP3      OH2             1.2739661684       31.8101527817        5.1828106935  SOLV      6973            0.0000000000
     21032      6984  TIP3      H1              0.6404446136       32.3945546356        5.6534364558  SOLV      6973            0.0000000000
     21033      6984  TIP3      H2              0.6459009387       31.2609980476        4.6674006280  SOLV      6973            0.0000000000
     21034      6985  TIP3      OH2             4.6061138857       25.1402233582       -7.4908674724  SOLV      6974            0.0000000000
     21035      6985  TIP3      H1              5.1888028330       25.7664740404       -7.0084410504  SOLV      6974            0.0000000000
     21036      6985  TIP3      H2              4.8707116836       25.3290679709       -8.4261434979  SOLV      6974            0.0000000000
     21037      6986  TIP3      OH2            -1.1467404742       27.3594685624        6.2769738380  SOLV      6975            0.0000000000
     21038      6986  TIP3      H1             -1.1127191607       28.2400445151        6.6998920328  SOLV      6975            0.0000000000
     21039      6986  TIP3      H2             -2.0908007337       27.1376436654        6.4082442192  SOLV      6975            0.0000000000
     21040      6987  TIP3      OH2             2.0616828662       31.8949744321       -4.6856115319  SOLV      6976            0.0000000000
     21041      6987  TIP3      H1              2.9153378167       32.3741283526       -4.6818246096  SOLV      6976            0.0000000000
     21042      6987  TIP3      H2              1.4761351872       32.5111827341       -5.1374178309  SOLV      6976            0.0000000000
     21043      6988  TIP3      OH2            -0.7803670250       33.4328762313        6.1173350231  SOLV      6977            0.0000000000
     21044      6988  TIP3      H1             -1.1525590703       33.4468841533        5.2158639973  SOLV      6977            0.0000000000
     21045      6988  TIP3      H2             -1.5696127557       33.2296189830        6.6690292333  SOLV      6977            0.0000000000
     21046      6989  TIP3      OH2             9.7700785998       17.4983811298       -6.9760793054  SOLV      6978            0.0000000000
     21047      6989  TIP3      H1              8.9446817158       17.7279740937       -6.5014720295  SOLV      6978            0.0000000000
     21048      6989  TIP3      H2              9.9275800558       18.3219729174       -7.4853259296  SOLV      6978            0.0000000000
     21049      6990  TIP3      OH2            -2.8352389448       24.9694105844       -3.4646875638  SOLV      6979            0.0000000000
     21050      6990  TIP3      H1             -3.5167729573       25.3657597048       -4.0467822402  SOLV      6979            0.0000000000
     21051      6990  TIP3      H2             -3.1071893482       24.0449949170       -3.4433357258  SOLV      6979            0.0000000000
     21052      6991  TIP3      OH2             7.8046858765       31.2018803104      -11.5233935915  SOLV      6980            0.0000000000
     21053      6991  TIP3      H1              7.8346533220       32.1720086708      -11.6806491906  SOLV      6980            0.0000000000
     21054      6991  TIP3      H2              8.7049436184       30.9444763673      -11.8016804129  SOLV      6980            0.0000000000
     21055      6992  TIP3      OH2            -4.9847761316       28.8117414656        5.5328814375  SOLV      6981            0.0000000000
     21056      6992  TIP3      H1             -5.6736354726       28.5878147329        4.8729442771  SOLV      6981            0.0000000000
     21057      6992  TIP3      H2             -4.6034196017       27.9359439450        5.7529541062  SOLV      6981            0.0000000000
     21058      6993  TIP3      OH2            -6.4604754813       30.7316111858        1.7765682871  SOLV      6982            0.0000000000
     21059      6993  TIP3      H1             -5.5055674620       30.6003645860        1.7169302647  SOLV      6982            0.0000000000
     21060      6993  TIP3      H2             -6.5361851499       31.4643067531        2.4024927988  SOLV      6982            0.0000000000
     21061      6994  TIP3      OH2            12.1562335650       35.2587716043        2.4909655372  SOLV      6983            0.0000000000
     21062      6994  TIP3      H1             12.1631647784       34.2895248782        2.6208755019  SOLV      6983            0.0000000000
     21063      6994  TIP3      H2             11.3182664359       35.4971722638        2.9420933239  SOLV      6983            0.0000000000
     21064      6995  TIP3      OH2             3.2828119280       33.0726485824        3.8688051233  SOLV      6984            0.0000000000
     21065      6995  TIP3      H1              3.1530742281       34.0172875944        4.1011612793  SOLV      6984            0.0000000000
     21066      6995  TIP3      H2              2.5297379237       32.6618986373        4.3528113873  SOLV      6984            0.0000000000
     21067      6996  TIP3      OH2             0.8646789523       34.4573407245       -6.8176567290  SOLV      6985            0.0000000000
     21068      6996  TIP3      H1              0.5160726781       34.0629186215       -7.6401949318  SOLV      6985            0.0000000000
     21069      6996  TIP3      H2              0.2218851134       35.1551602392       -6.6379255109  SOLV      6985            0.0000000000
     21070      6997  TIP3      OH2            -4.7773758355       32.9208461354       -2.8318819282  SOLV      6986            0.0000000000
     21071      6997  TIP3      H1             -4.3145116288       32.8389359343       -1.9693106058  SOLV      6986            0.0000000000
     21072      6997  TIP3      H2             -5.2131312263       32.0499995668       -2.8879966984  SOLV      6986            0.0000000000
     21073      6998  TIP3      OH2             2.8599359335       33.4666818867      -10.3617166025  SOLV      6987            0.0000000000
     21074      6998  TIP3      H1              3.4038831362       32.7511751266      -10.7635428580  SOLV      6987            0.0000000000
     21075      6998  TIP3      H2              3.2390187196       33.5035331033       -9.4590463828  SOLV      6987            0.0000000000
     21076      6999  TIP3      OH2             3.4065282093       33.9204584966       -7.6480011426  SOLV      6988            0.0000000000
     21077      6999  TIP3      H1              2.5380847559       34.0362085327       -7.2051111934  SOLV      6988            0.0000000000
     21078      6999  TIP3      H2              3.9238003747       33.4821979464       -6.9522003099  SOLV      6988            0.0000000000
     21079      7000  TIP3      OH2            11.0590291216       26.5198881289        5.1765433826  SOLV      6989            0.0000000000
     21080      7000  TIP3      H1             10.2228046022       26.5940949051        4.6919506412  SOLV      6989            0.0000000000
     21081      7000  TIP3      H2             11.2415705376       25.5616067952        5.0955308348  SOLV      6989            0.0000000000
     21082      7001  TIP3      OH2            -2.9582496773       30.6578375173        5.4092932680  SOLV      6990            0.0000000000
     21083      7001  TIP3      H1             -2.4607048886       30.4763654588        6.2325283594  SOLV      6990            0.0000000000
     21084      7001  TIP3      H2             -3.6892664599       30.0065245563        5.4739940712  SOLV      6990            0.0000000000
     21085      7002  TIP3      OH2             1.0395409369       18.8436584114        3.3058407345  SOLV      6991            0.0000000000
     21086      7002  TIP3      H1              0.1660487848       18.5377202025        2.9834536764  SOLV      6991            0.0000000000
     21087      7002  TIP3      H2              0.7559576181       19.6385446362        3.7996846759  SOLV      6991            0.0000000000
     21088      7003  TIP3      OH2             6.4055880510       19.9982498763        5.2298868417  SOLV      6992            0.0000000000
     21089      7003  TIP3      H1              7.0988061082       19.7049670952        5.8566324087  SOLV      6992            0.0000000000
     21090      7003  TIP3      H2              5.5773792006       19.7986326778        5.7121125582  SOLV      6992            0.0000000000
     21091      7004  TIP3      OH2             8.7493228187       24.2908978350        4.4258095005  SOLV      6993            0.0000000000
     21092      7004  TIP3      H1              8.2235347030       24.2698533645        5.2580690461  SOLV      6993            0.0000000000
     21093      7004  TIP3      H2              8.5138528275       25.1591680108        4.0482183083  SOLV      6993            0.0000000000
     21094      7005  TIP3      OH2             5.4034760976       25.5914772026      -10.0190765384  SOLV      6994            0.0000000000
     21095      7005  TIP3      H1              5.0115715988       25.3389102040      -10.8765354789  SOLV      6994            0.0000000000
     21096      7005  TIP3      H2              6.2510271147       25.9832619759      -10.3074151972  SOLV      6994            0.0000000000
     21097      7006  TIP3      OH2             2.5479248419       19.2731144288       -6.9714131949  SOLV      6995            0.0000000000
     21098      7006  TIP3      H1              2.1331441720       19.2291362168       -6.0888026981  SOLV      6995            0.0000000000
     21099      7006  TIP3      H2              2.0733327976       18.5353652742       -7.4060355004  SOLV      6995            0.0000000000
     21100      7007  TIP3      OH2             0.3773321796       24.0169856952        3.4871722602  SOLV      6996            0.0000000000
     21101      7007  TIP3      H1             -0.1480978829       24.2121849327        4.2909140796  SOLV      6996            0.0000000000
     21102      7007  TIP3      H2              0.2116250180       24.8278257520        2.9556987558  SOLV      6996            0.0000000000
     21103      7008  TIP3      OH2            -0.8045684389       22.8936007846       -1.3950597269  SOLV      6997            0.0000000000
     21104      7008  TIP3      H1             -1.7264890059       22.6133240883       -1.2106010632  SOLV      6997            0.0000000000
     21105      7008  TIP3      H2             -0.6809068302       22.4934870024       -2.2869060003  SOLV      6997            0.0000000000
     21106      7009  TIP3      OH2             4.1039770525       23.7372453957       -4.0695053861  SOLV      6998            0.0000000000
     21107      7009  TIP3      H1              3.6171948409       24.4448566079       -4.5436280215  SOLV      6998            0.0000000000
     21108      7009  TIP3      H2              4.6585666619       23.3687897611       -4.7902311579  SOLV      6998            0.0000000000
     21109      7010  TIP3      OH2             5.8553734488       26.4888720896        6.7400047411  SOLV      6999            0.0000000000
     21110      7010  TIP3      H1              5.6279429017       25.7610820500        7.3603619105  SOLV      6999            0.0000000000
     21111      7010  TIP3      H2              6.8009158211       26.6056131372        6.9524514613  SOLV      6999            0.0000000000
     21112      7011  TIP3      OH2             5.6576508308       23.9923037270       -1.7571978521  SOLV      7000            0.0000000000
     21113      7011  TIP3      H1              5.0180676329       24.2345175224       -2.4604689570  SOLV      7000            0.0000000000
     21114      7011  TIP3      H2              6.0422838898       23.2051837898       -2.2002353458  SOLV      7000            0.0000000000
     21115      7012  TIP3      OH2            -1.4456471819       24.2828219443        5.5404192706  SOLV      7001            0.0000000000
     21116      7012  TIP3      H1             -1.1514164430       24.8970826600        6.2282113225  SOLV      7001            0.0000000000
     21117      7012  TIP3      H2             -1.5623246479       23.4518095934        6.0436099152  SOLV      7001            0.0000000000
     21118      7013  TIP3      OH2            -1.1082918551       18.8608798823       -7.2977320652  SOLV      7002            0.0000000000
     21119      7013  TIP3      H1             -1.2082988830       19.0279293117       -6.3439452095  SOLV      7002            0.0000000000
     21120      7013  TIP3      H2             -1.6431972731       19.5767484129       -7.6866401315  SOLV      7002            0.0000000000
     21121      7014  TIP3      OH2            -5.5240418423       19.4877788985        1.3891618179  SOLV      7003            0.0000000000
     21122      7014  TIP3      H1             -4.7516629862       19.8110032807        1.8935001100  SOLV      7003            0.0000000000
     21123      7014  TIP3      H2             -5.1461711321       19.1864299727        0.5479947608  SOLV      7003            0.0000000000
     21124      7015  TIP3      OH2            -5.8845624224       19.2926982509       -3.4353823209  SOLV      7004            0.0000000000
     21125      7015  TIP3      H1             -5.4168239810       19.6406397355       -4.2250774980  SOLV      7004            0.0000000000
     21126      7015  TIP3      H2             -6.4980212625       20.0346128020       -3.2788327667  SOLV      7004            0.0000000000
     21127      7016  TIP3      OH2             5.7960186204       26.4343477179        2.4725645975  SOLV      7005            0.0000000000
     21128      7016  TIP3      H1              6.1248768090       25.7264717953        1.8685491992  SOLV      7005            0.0000000000
     21129      7016  TIP3      H2              5.4812963309       25.8821692038        3.2208828456  SOLV      7005            0.0000000000
     21130      7017  TIP3      OH2             2.5623451436       21.0944202675       -0.7892420011  SOLV      7006            0.0000000000
     21131      7017  TIP3      H1              1.7408873858       21.0790768839       -0.2590820258  SOLV      7006            0.0000000000
     21132      7017  TIP3      H2              3.2486113274       20.9939243817       -0.1073792923  SOLV      7006            0.0000000000
     21133      7018  TIP3      OH2            -3.1838202609       21.6633289170       -0.7290055067  SOLV      7007            0.0000000000
     21134      7018  TIP3      H1             -4.1219146185       21.7371895670       -1.0262548232  SOLV      7007            0.0000000000
     21135      7018  TIP3      H2             -2.9568781784       20.7411702019       -0.9503163457  SOLV      7007            0.0000000000
     21136      7019  TIP3      OH2            -0.5480863100       21.6466658700       -3.8090841967  SOLV      7008            0.0000000000
     21137      7019  TIP3      H1              0.3925525755       21.7405118738       -4.0519887516  SOLV      7008            0.0000000000
     21138      7019  TIP3      H2             -1.0166326622       21.8248454697       -4.6582481653  SOLV      7008            0.0000000000
     21139      7020  TIP3      OH2             7.3940723766       21.8617423645        1.2650943866  SOLV      7009            0.0000000000
     21140      7020  TIP3      H1              7.0593992324       21.9956251333        2.1793549852  SOLV      7009            0.0000000000
     21141      7020  TIP3      H2              6.7216840025       21.2512354480        0.9152692661  SOLV      7009            0.0000000000
     21142      7021  TIP3      OH2            -2.0220083255       21.9802962319       -6.0636824830  SOLV      7010            0.0000000000
     21143      7021  TIP3      H1             -2.6853837596       21.4820314605       -6.5730847919  SOLV      7010            0.0000000000
     21144      7021  TIP3      H2             -1.4932211517       22.3669669836       -6.7945798121  SOLV      7010            0.0000000000
     21145      7022  TIP3      OH2             9.0397867789       38.7693917548        3.3783096232  SOLV      7011            0.0000000000
     21146      7022  TIP3      H1              8.9552120258       38.9746554015        2.4264726141  SOLV      7011            0.0000000000
     21147      7022  TIP3      H2              9.8652480125       39.2632203538        3.5702745988  SOLV      7011            0.0000000000
     21148      7023  TIP3      OH2            -1.3054853290       29.8847403806        7.6248740467  SOLV      7012            0.0000000000
     21149      7023  TIP3      H1             -0.5269522170       30.1767414820        8.1391224575  SOLV      7012            0.0000000000
     21150      7023  TIP3      H2             -1.9660158314       29.8098993977        8.3447318526  SOLV      7012            0.0000000000
     21151      7024  TIP3      OH2             3.2780378292       24.4026016290        0.1997797643  SOLV      7013            0.0000000000
     21152      7024  TIP3      H1              3.9976595056       23.9969098637       -0.3067113228  SOLV      7013            0.0000000000
     21153      7024  TIP3      H2              3.3206338286       23.9205981873        1.0473977239  SOLV      7013            0.0000000000
     21154      7025  TIP3      OH2            -1.5099182711       19.2427976698       -0.9856241195  SOLV      7014            0.0000000000
     21155      7025  TIP3      H1             -1.8755212175       18.4789684460       -0.4876058021  SOLV      7014            0.0000000000
     21156      7025  TIP3      H2             -1.1491688651       18.8068666261       -1.7704288395  SOLV      7014            0.0000000000
     21157      7026  TIP3      OH2             3.0583440593       23.3973205330        3.0341444816  SOLV      7015            0.0000000000
     21158      7026  TIP3      H1              2.1501070189       23.7199218928        3.2048044160  SOLV      7015            0.0000000000
     21159      7026  TIP3      H2              3.6145377872       24.0083110032        3.5544044599  SOLV      7015            0.0000000000
     21160      7027  TIP3      OH2             0.3799641870       27.2738965172       -5.9976674364  SOLV      7016            0.0000000000
     21161      7027  TIP3      H1             -0.3122441997       26.5856634330       -6.1011507064  SOLV      7016            0.0000000000
     21162      7027  TIP3      H2              0.1908799486       27.5934556896       -5.0811891088  SOLV      7016            0.0000000000
     21163      7028  TIP3      OH2             9.3912135494       29.6146602053        0.2849253775  SOLV      7017            0.0000000000
     21164      7028  TIP3      H1              9.6475304328       30.1225324992       -0.5156505843  SOLV      7017            0.0000000000
     21165      7028  TIP3      H2              8.5635562974       29.1703415137       -0.0048751056  SOLV      7017            0.0000000000
     21166      7029  TIP3      OH2             5.0352214873       20.2923302867       -7.1879052964  SOLV      7018            0.0000000000
     21167      7029  TIP3      H1              4.0748313087       20.0604119282       -7.1769022031  SOLV      7018            0.0000000000
     21168      7029  TIP3      H2              5.0248094674       21.2609420876       -7.0720988941  SOLV      7018            0.0000000000
     21169      7030  TIP3      OH2             4.5119193813       30.4871305241        3.9754058453  SOLV      7019            0.0000000000
     21170      7030  TIP3      H1              4.6700072210       30.1618326452        4.8699288379  SOLV      7019            0.0000000000
     21171      7030  TIP3      H2              3.9993604811       31.2999802207        4.1216559576  SOLV      7019            0.0000000000
     21172      7031  TIP3      OH2             5.6694026932       22.8945683664       -6.2082877061  SOLV      7020            0.0000000000
     21173      7031  TIP3      H1              6.6389417641       22.9483316464       -6.1251911503  SOLV      7020            0.0000000000
     21174      7031  TIP3      H2              5.4563637737       23.6622557131       -6.7752961802  SOLV      7020            0.0000000000
     21175      7032  TIP3      OH2            -2.6055552006       27.5563360352        0.7562635435  SOLV      7021            0.0000000000
     21176      7032  TIP3      H1             -2.2479379706       27.2282523539       -0.0954800541  SOLV      7021            0.0000000000
     21177      7032  TIP3      H2             -2.2202418327       26.9253725138        1.3820433798  SOLV      7021            0.0000000000
     21178      7033  TIP3      OH2             1.8946289238       28.7430890868       -7.7250019881  SOLV      7022            0.0000000000
     21179      7033  TIP3      H1              1.4013584255       29.5950246004       -7.6856698376  SOLV      7022            0.0000000000
     21180      7033  TIP3      H2              1.3532622369       28.1861501634       -7.1231143073  SOLV      7022            0.0000000000
     21181      7034  TIP3      OH2            -3.8041911480       26.6824120981        6.9185318932  SOLV      7023            0.0000000000
     21182      7034  TIP3      H1             -3.6331568370       26.5156004685        7.8665997956  SOLV      7023            0.0000000000
     21183      7034  TIP3      H2             -4.4975433636       26.0254067686        6.7306444450  SOLV      7023            0.0000000000
     21184      7035  TIP3      OH2             3.4659945848       27.8804160903        7.0874247245  SOLV      7024            0.0000000000
     21185      7035  TIP3      H1              2.8218170416       27.2628762612        6.7035920533  SOLV      7024            0.0000000000
     21186      7035  TIP3      H2              4.3116685462       27.4619425871        6.8145077167  SOLV      7024            0.0000000000
     21187      7036  TIP3      OH2             5.9525013954       33.0966229091        2.8385246710  SOLV      7025            0.0000000000
     21188      7036  TIP3      H1              5.0152552502       32.9716466812        3.0812737282  SOLV      7025            0.0000000000
     21189      7036  TIP3      H2              6.3422111918       33.4087823771        3.6586139020  SOLV      7025            0.0000000000
     21190      7037  TIP3      OH2            10.1021244583       23.8015350454       -7.9667713768  SOLV      7026            0.0000000000
     21191      7037  TIP3      H1              9.4858503943       23.3712850206       -8.6076856140  SOLV      7026            0.0000000000
     21192      7037  TIP3      H2             10.0431999134       24.7144165804       -8.3274595290  SOLV      7026            0.0000000000
     21193      7038  TIP3      OH2            12.3194076052       32.4042451584        2.8084507662  SOLV      7027            0.0000000000
     21194      7038  TIP3      H1             11.3459069986       32.2866880851        2.7477941132  SOLV      7027            0.0000000000
     21195      7038  TIP3      H2             12.5807973069       32.0668803179        1.9202873663  SOLV      7027            0.0000000000
     21196      7039  TIP3      OH2             6.9964159524       31.9821195187       -8.9091134306  SOLV      7028            0.0000000000
     21197      7039  TIP3      H1              6.9374820216       31.2668701119       -8.2612196254  SOLV      7028            0.0000000000
     21198      7039  TIP3      H2              7.2589430118       31.5115356414       -9.7211975948  SOLV      7028            0.0000000000
     21199      7040  TIP3      OH2             7.0678085602       28.2433914646       -0.5401796778  SOLV      7029            0.0000000000
     21200      7040  TIP3      H1              6.1323194411       27.9911234161       -0.4166627242  SOLV      7029            0.0000000000
     21201      7040  TIP3      H2              7.4109011201       27.4366458042       -0.9773031164  SOLV      7029            0.0000000000
     21202      7041  TIP3      OH2            -1.6015101081       30.5485176460       -2.8659418411  SOLV      7030            0.0000000000
     21203      7041  TIP3      H1             -1.6798381775       31.3095412613       -3.4753718497  SOLV      7030            0.0000000000
     21204      7041  TIP3      H2             -2.5129162602       30.2361852312       -2.8383865815  SOLV      7030            0.0000000000
     21205      7042  TIP3      OH2            -5.9714295671       23.5403892434       -5.9036488232  SOLV      7031            0.0000000000
     21206      7042  TIP3      H1             -5.5291961200       24.3824006763       -5.6692932793  SOLV      7031            0.0000000000
     21207      7042  TIP3      H2             -6.7437870103       23.5608860608       -5.2948267707  SOLV      7031            0.0000000000
     21208      7043  TIP3      OH2            -0.3426898120       28.1495970473       -3.5535879869  SOLV      7032            0.0000000000
     21209      7043  TIP3      H1             -0.6270114134       29.0488998224       -3.3053149311  SOLV      7032            0.0000000000
     21210      7043  TIP3      H2             -0.6634157966       27.6229655773       -2.7979118712  SOLV      7032            0.0000000000
     21211      7044  TIP3      OH2             1.0944922721       33.9410287575        1.7041685207  SOLV      7033            0.0000000000
     21212      7044  TIP3      H1              1.5115309950       34.6558291295        1.1760501358  SOLV      7033            0.0000000000
     21213      7044  TIP3      H2              1.8735779789       33.5269057549        2.1025377814  SOLV      7033            0.0000000000
     21214      7045  TIP3      OH2            -2.5117466058       32.7658010354       -4.4547360763  SOLV      7034            0.0000000000
     21215      7045  TIP3      H1             -3.3560654756       32.9131716765       -3.9834895054  SOLV      7034            0.0000000000
     21216      7045  TIP3      H2             -2.1353916166       33.6746337055       -4.4225027534  SOLV      7034            0.0000000000
     21217      7046  TIP3      OH2             4.9357612474       30.3095649232        1.2923670762  SOLV      7035            0.0000000000
     21218      7046  TIP3      H1              4.8582631695       30.2779286444        2.2733969776  SOLV      7035            0.0000000000
     21219      7046  TIP3      H2              5.6418702014       29.6681978575        1.1287138093  SOLV      7035            0.0000000000
     21220      7047  TIP3      OH2             4.7309127506       29.2653968375       -9.8272750399  SOLV      7036            0.0000000000
     21221      7047  TIP3      H1              5.2778306124       29.0260084529       -9.0442571881  SOLV      7036            0.0000000000
     21222      7047  TIP3      H2              3.8729852892       28.9004872492       -9.5636319177  SOLV      7036            0.0000000000
     21223      7048  TIP3      OH2             7.3936679633       35.6222305491        1.7697610938  SOLV      7037            0.0000000000
     21224      7048  TIP3      H1              6.5717575688       35.0993309212        1.6668051793  SOLV      7037            0.0000000000
     21225      7048  TIP3      H2              7.2728497384       36.2909673390        1.0634936119  SOLV      7037            0.0000000000
     21226      7049  TIP3      OH2             7.9628766579       33.9508072283      -11.7899650181  SOLV      7038            0.0000000000
     21227      7049  TIP3      H1              8.6018955880       34.6888176462      -11.8548735890  SOLV      7038            0.0000000000
     21228      7049  TIP3      H2              7.2030963978       34.4231992198      -11.4045309537  SOLV      7038            0.0000000000
     21229      7050  TIP3      OH2            -1.7626195082       21.7375374469        6.9496233764  SOLV      7039            0.0000000000
     21230      7050  TIP3      H1             -2.7330732742       21.7484794557        7.0634505664  SOLV      7039            0.0000000000
     21231      7050  TIP3      H2             -1.4846342506       21.1807711302        7.6949712086  SOLV      7039            0.0000000000
     21232      7051  TIP3      OH2             6.3731286816       28.6290028451       -7.6682590368  SOLV      7040            0.0000000000
     21233      7051  TIP3      H1              6.2512504906       27.9316017762       -6.9913307949  SOLV      7040            0.0000000000
     21234      7051  TIP3      H2              7.3403887560       28.5592239175       -7.8173114890  SOLV      7040            0.0000000000
     21235      7052  TIP3      OH2            -4.4820162216       32.5687809009        3.3693520948  SOLV      7041            0.0000000000
     21236      7052  TIP3      H1             -3.9952931895       31.7310596985        3.4010519127  SOLV      7041            0.0000000000
     21237      7052  TIP3      H2             -4.1982100746       32.9481806967        4.2080437615  SOLV      7041            0.0000000000
     21238      7053  TIP3      OH2            -1.7142642728       29.0229581163       -9.8362131688  SOLV      7042            0.0000000000
     21239      7053  TIP3      H1             -1.5462032654       28.1023199919      -10.1110926377  SOLV      7042            0.0000000000
     21240      7053  TIP3      H2             -1.9244952775       28.9022834761       -8.8894492474  SOLV      7042            0.0000000000
     21241      7054  TIP3      OH2            -2.2522538026       29.0678912256       -7.1012926556  SOLV      7043            0.0000000000
     21242      7054  TIP3      H1             -1.4553197811       28.7595902092       -6.6436078351  SOLV      7043            0.0000000000
     21243      7054  TIP3      H2             -2.1735200639       30.0441708920       -7.0134051865  SOLV      7043            0.0000000000
     21244      7055  TIP3      OH2            -4.8836356782       25.9825788512       -5.0847331561  SOLV      7044            0.0000000000
     21245      7055  TIP3      H1             -5.5604209975       26.4320065660       -4.5369489438  SOLV      7044            0.0000000000
     21246      7055  TIP3      H2             -4.7374959729       26.6591617468       -5.7729217128  SOLV      7044            0.0000000000
     21247      7056  TIP3      OH2             6.6549716295       22.3950890962        3.8764446534  SOLV      7045            0.0000000000
     21248      7056  TIP3      H1              7.4933663884       22.7453966963        4.2206091272  SOLV      7045            0.0000000000
     21249      7056  TIP3      H2              6.5386460438       21.5719298814        4.3996956872  SOLV      7045            0.0000000000
     21250      7057  TIP3      OH2             5.4827541441       19.8234087584       -4.4506503120  SOLV      7046            0.0000000000
     21251      7057  TIP3      H1              5.3207165539       20.0075876789       -5.4000003018  SOLV      7046            0.0000000000
     21252      7057  TIP3      H2              5.8503572809       20.6779995491       -4.1422591925  SOLV      7046            0.0000000000
     21253      7058  TIP3      OH2             0.4769878788       31.0333653145       -7.6282290608  SOLV      7047            0.0000000000
     21254      7058  TIP3      H1             -0.4053261864       31.2685782585       -7.2797406999  SOLV      7047            0.0000000000
     21255      7058  TIP3      H2              0.5944620291       31.7259963407       -8.2949753640  SOLV      7047            0.0000000000
     21256      7059  TIP3      OH2             2.3082378749       21.7094027608       -3.4773690190  SOLV      7048            0.0000000000
     21257      7059  TIP3      H1              2.9409709960       22.4366053492       -3.6607613840  SOLV      7048            0.0000000000
     21258      7059  TIP3      H2              2.3888336613       21.6261728680       -2.5035352428  SOLV      7048            0.0000000000
     21259      7060  TIP3      OH2             5.0438990001       24.8322232840        4.5372939370  SOLV      7049            0.0000000000
     21260      7060  TIP3      H1              5.3120853955       25.3068162688        5.3492486780  SOLV      7049            0.0000000000
     21261      7060  TIP3      H2              5.5542337032       24.0031345267        4.5977820339  SOLV      7049            0.0000000000
     21262      7061  TIP3      OH2             3.7338801508       18.8796065444       -2.5040635551  SOLV      7050            0.0000000000
     21263      7061  TIP3      H1              3.6322020610       19.6886037617       -1.9706549328  SOLV      7050            0.0000000000
     21264      7061  TIP3      H2              4.3740077099       19.1940820052       -3.1856964478  SOLV      7050            0.0000000000
     21265      7062  TIP3      OH2            -2.0533553598       31.7824091886       -6.9533598312  SOLV      7051            0.0000000000
     21266      7062  TIP3      H1             -2.3783541783       32.5001506538       -7.5408403167  SOLV      7051            0.0000000000
     21267      7062  TIP3      H2             -2.2532418137       32.1531101308       -6.0644999538  SOLV      7051            0.0000000000
     21268      7063  TIP3      OH2            -1.1543609366       18.9812796755       -4.4975109093  SOLV      7052            0.0000000000
     21269      7063  TIP3      H1             -1.1255867940       19.8903783829       -4.1414981429  SOLV      7052            0.0000000000
     21270      7063  TIP3      H2             -0.1951432692       18.7779382425       -4.4950683198  SOLV      7052            0.0000000000
     21271      7064  TIP3      OH2            11.4148145695       23.8600634331        4.3815509534  SOLV      7053            0.0000000000
     21272      7064  TIP3      H1             10.4350515711       23.8653086282        4.4693613538  SOLV      7053            0.0000000000
     21273      7064  TIP3      H2             11.5001362722       23.3465084046        3.5661047909  SOLV      7053            0.0000000000
     21274      7065  TIP3      OH2             7.9306840432       25.8101512693       -1.7223850476  SOLV      7054            0.0000000000
     21275      7065  TIP3      H1              7.1687228624       25.2093424350       -1.6351566809  SOLV      7054            0.0000000000
     21276      7065  TIP3      H2              8.6377074712       25.3203062449       -1.2503763185  SOLV      7054            0.0000000000
     21277      7066  TIP3      OH2            -4.8830754951       28.0322303332       -7.0752759363  SOLV      7055            0.0000000000
     21278      7066  TIP3      H1             -4.1093184667       28.6213966939       -6.9646181783  SOLV      7055            0.0000000000
     21279      7066  TIP3      H2             -4.4943200037       27.4143722085       -7.7348293046  SOLV      7055            0.0000000000
     21280      7067  TIP3      OH2            -5.5270465039       20.8375302438       -5.6612342152  SOLV      7056            0.0000000000
     21281      7067  TIP3      H1             -5.5193384061       21.8139590798       -5.7020498499  SOLV      7056            0.0000000000
     21282      7067  TIP3      H2             -6.2377415325       20.6154027861       -6.2731084467  SOLV      7056            0.0000000000
     21283      7068  TIP3      OH2             7.6428159709       35.4083774273       -2.2082436496  SOLV      7057            0.0000000000
     21284      7068  TIP3      H1              7.2344084490       35.8465952432       -2.9891214579  SOLV      7057            0.0000000000
     21285      7068  TIP3      H2              8.5925883465       35.5764332997       -2.4174324741  SOLV      7057            0.0000000000
     21286      7069  TIP3      OH2            -1.6142905868       18.0520277893        2.9895312644  SOLV      7058            0.0000000000
     21287      7069  TIP3      H1             -1.9077730818       17.7006848019        2.1211096702  SOLV      7058            0.0000000000
     21288      7069  TIP3      H2             -1.7200311713       17.2706082898        3.5691793946  SOLV      7058            0.0000000000
     21289      7070  TIP3      OH2            -6.1842633080       30.3040491555       -3.1695433223  SOLV      7059            0.0000000000
     21290      7070  TIP3      H1             -6.8629244825       30.5304157744       -2.5202597483  SOLV      7059            0.0000000000
     21291      7070  TIP3      H2             -6.5737003872       30.6754136731       -3.9984854939  SOLV      7059            0.0000000000
     21292      7071  TIP3      OH2            -4.5523512176       35.7220962299        7.4951929970  SOLV      7060            0.0000000000
     21293      7071  TIP3      H1             -3.7103827872       35.7362848152        8.0041917975  SOLV      7060            0.0000000000
     21294      7071  TIP3      H2             -4.7728284563       34.7767007151        7.5428763011  SOLV      7060            0.0000000000
     21295      7072  TIP3      OH2             0.0686735413       35.4119756780        7.8614973248  SOLV      7061            0.0000000000
     21296      7072  TIP3      H1              0.9477860390       35.1303833018        8.1391591519  SOLV      7061            0.0000000000
     21297      7072  TIP3      H2             -0.1517589096       34.7318792637        7.1917336519  SOLV      7061            0.0000000000
     21298      7073  TIP3      OH2            -0.0464075587       31.0218865417      -10.7464764352  SOLV      7062            0.0000000000
     21299      7073  TIP3      H1             -0.5992158043       30.2898262738      -10.3846973068  SOLV      7062            0.0000000000
     21300      7073  TIP3      H2              0.7228660570       30.5189158283      -11.0716157334  SOLV      7062            0.0000000000
     21301      7074  TIP3      OH2             4.3018342617       31.4358479267      -11.5845036411  SOLV      7063            0.0000000000
     21302      7074  TIP3      H1              4.6992079073       30.8025308558      -10.9523950575  SOLV      7063            0.0000000000
     21303      7074  TIP3      H2              4.9053128595       31.3791566349      -12.3489359304  SOLV      7063            0.0000000000
     21304      7075  TIP3      OH2            -3.3427014809       29.6361775264        9.4773699911  SOLV      7064            0.0000000000
     21305      7075  TIP3      H1             -3.2069916341       28.6745830012        9.5697619937  SOLV      7064            0.0000000000
     21306      7075  TIP3      H2             -4.2234443349       29.6831237649        9.0504858070  SOLV      7064            0.0000000000
     21307      7076  TIP3      OH2            -3.5496490376       26.1693461495       -8.4851706606  SOLV      7065            0.0000000000
     21308      7076  TIP3      H1             -2.9784365695       25.8428482225       -7.7650118405  SOLV      7065            0.0000000000
     21309      7076  TIP3      H2             -2.8898853495       26.2147521850       -9.2135829970  SOLV      7065            0.0000000000
     21310      7077  TIP3      OH2             2.7210390883       30.6039747413        7.2557108167  SOLV      7066            0.0000000000
     21311      7077  TIP3      H1              2.2625956283       30.7672994171        6.4080652592  SOLV      7066            0.0000000000
     21312      7077  TIP3      H2              3.0252766504       29.6743202978        7.1652204180  SOLV      7066            0.0000000000
     21313      7078  TIP3      OH2             1.5843202941       28.2303544682      -10.4166880553  SOLV      7067            0.0000000000
     21314      7078  TIP3      H1              1.6225857156       28.3202583462       -9.4425581168  SOLV      7067            0.0000000000
     21315      7078  TIP3      H2              1.6345959404       27.2516529571      -10.5067448068  SOLV      7067            0.0000000000
     21316      7079  TIP3      OH2             7.6766277341       30.7160055429        3.4137819360  SOLV      7068            0.0000000000
     21317      7079  TIP3      H1              8.4298916372       31.1179299812        2.9368899221  SOLV      7068            0.0000000000
     21318      7079  TIP3      H2              6.9331068185       31.2488262356        3.0889944381  SOLV      7068            0.0000000000
     21319      7080  TIP3      OH2            -2.1154410994       27.0585545658        9.3548518502  SOLV      7069            0.0000000000
     21320      7080  TIP3      H1             -1.3298679630       26.5540423157        9.1136298899  SOLV      7069            0.0000000000
     21321      7080  TIP3      H2             -1.8603586661       27.3963350825       10.2416043465  SOLV      7069            0.0000000000
     21322      7081  TIP3      OH2            -1.5267089162       25.2884330449       -6.3489313004  SOLV      7070            0.0000000000
     21323      7081  TIP3      H1             -1.7613418797       24.8148602879       -5.5373401826  SOLV      7070            0.0000000000
     21324      7081  TIP3      H2             -1.1022081346       24.5753012252       -6.8765264966  SOLV      7070            0.0000000000
     21325      7082  TIP3      OH2             1.2155097421       25.9405854073        6.0123097415  SOLV      7071            0.0000000000
     21326      7082  TIP3      H1              0.4172381854       26.5115304856        5.9902517015  SOLV      7071            0.0000000000
     21327      7082  TIP3      H2              1.7328756145       26.2939682875        5.2505040498  SOLV      7071            0.0000000000
     21328      7083  TIP3      OH2            -0.4663808797       23.2648813803       -7.8902237905  SOLV      7072            0.0000000000
     21329      7083  TIP3      H1             -0.6828467691       23.2465521773       -8.8453628307  SOLV      7072            0.0000000000
     21330      7083  TIP3      H2              0.5163105667       23.2409135291       -7.9257064896  SOLV      7072            0.0000000000
     21331      7084  TIP3      OH2             6.5670853109       30.1296475917        7.3954566336  SOLV      7073            0.0000000000
     21332      7084  TIP3      H1              7.1715774416       29.6742991702        6.7985191534  SOLV      7073            0.0000000000
     21333      7084  TIP3      H2              6.3874882972       29.4537306300        8.0677649103  SOLV      7073            0.0000000000
     21334      7085  TIP3      OH2             7.7055772465       26.5079973375      -11.2252203780  SOLV      7074            0.0000000000
     21335      7085  TIP3      H1              7.5164207650       26.0722866762      -12.0813211525  SOLV      7074            0.0000000000
     21336      7085  TIP3      H2              7.3606356081       27.4082915429      -11.4298539095  SOLV      7074            0.0000000000
     21337      7086  TIP3      OH2             2.4471688600       23.8203203573        7.2046315067  SOLV      7075            0.0000000000
     21338      7086  TIP3      H1              2.4491996907       23.0356573123        6.6181938800  SOLV      7075            0.0000000000
     21339      7086  TIP3      H2              1.9995597822       24.4931914664        6.6447838125  SOLV      7075            0.0000000000
     21340      7087  TIP3      OH2             2.4678247945       21.6964713136        5.3239535241  SOLV      7076            0.0000000000
     21341      7087  TIP3      H1              2.7534384981       22.0801014203        4.4736072098  SOLV      7076            0.0000000000
     21342      7087  TIP3      H2              1.5355657469       21.4564692925        5.1314199032  SOLV      7076            0.0000000000
     21343      7088  TIP3      OH2             2.6930340820       27.0395096169        4.0769304062  SOLV      7077            0.0000000000
     21344      7088  TIP3      H1              3.5397512470       27.0963096116        3.6172395877  SOLV      7077            0.0000000000
     21345      7088  TIP3      H2              2.1313070790       27.6624169131        3.5677877469  SOLV      7077            0.0000000000
     21346      7089  TIP3      OH2             8.5057372713       26.6480908795        7.8173713544  SOLV      7078            0.0000000000
     21347      7089  TIP3      H1              8.9461670078       25.8023838943        7.9962869582  SOLV      7078            0.0000000000
     21348      7089  TIP3      H2              9.2189545821       27.1604736551        7.4105188595  SOLV      7078            0.0000000000
     21349      7090  TIP3      OH2             8.9517308968       29.2377871710        5.2678844586  SOLV      7079            0.0000000000
     21350      7090  TIP3      H1              8.3889412396       29.7879439988        4.6734433386  SOLV      7079            0.0000000000
     21351      7090  TIP3      H2              9.8346248138       29.4156091276        4.8748610843  SOLV      7079            0.0000000000
     21352      7091  TIP3      OH2             1.2178322883       24.8533840981        9.5504233926  SOLV      7080            0.0000000000
     21353      7091  TIP3      H1              0.5485615735       24.1598834398        9.7251549428  SOLV      7080            0.0000000000
     21354      7091  TIP3      H2              1.5450797870       24.5876233017        8.6681616664  SOLV      7080            0.0000000000
     21355      7092  TIP3      OH2             3.7797948952       19.2911977388        6.0306630614  SOLV      7081            0.0000000000
     21356      7092  TIP3      H1              3.2707563291       20.0942862471        5.7924248554  SOLV      7081            0.0000000000
     21357      7092  TIP3      H2              3.1052523847       18.5905390203        5.9121504357  SOLV      7081            0.0000000000
     21358      7093  TIP3      OH2             5.0268909016       24.3118195906        8.1632306557  SOLV      7082            0.0000000000
     21359      7093  TIP3      H1              4.8648003259       24.1445814619        9.1107002923  SOLV      7082            0.0000000000
     21360      7093  TIP3      H2              4.1402003385       24.0795558956        7.8108984125  SOLV      7082            0.0000000000
     21361      7094  TIP3      OH2             7.4203742725       23.8632768381        6.7300826179  SOLV      7083            0.0000000000
     21362      7094  TIP3      H1              6.6798184717       23.8481977187        7.3686412866  SOLV      7083            0.0000000000
     21363      7094  TIP3      H2              8.1722875179       23.5461300539        7.2725950227  SOLV      7083            0.0000000000
     21364      7095  TIP3      OH2             9.7221631193       23.2561985950        8.1830631335  SOLV      7084            0.0000000000
     21365      7095  TIP3      H1              9.8590639829       22.2953902315        8.3284921091  SOLV      7084            0.0000000000
     21366      7095  TIP3      H2              9.6862592167       23.6061603581        9.0974680279  SOLV      7084            0.0000000000
     21367      7096  TIP3      OH2            -0.3927205832       22.6665130185       10.1241786468  SOLV      7085            0.0000000000
     21368      7096  TIP3      H1             -0.3730972494       21.7413531642        9.8069403840  SOLV      7085            0.0000000000
     21369      7096  TIP3      H2             -0.0077752376       22.5574500184       11.0187325111  SOLV      7085            0.0000000000
     21370      7097  TIP3      OH2             4.6997829898       19.3850432367        8.6167686886  SOLV      7086            0.0000000000
     21371      7097  TIP3      H1              5.3579443560       18.6651735625        8.5402749266  SOLV      7086            0.0000000000
     21372      7097  TIP3      H2              4.3044710764       19.3533494831        7.7214138003  SOLV      7086            0.0000000000
     21373      7098  TIP3      OH2             5.3912360979       21.5431207093       10.1795266066  SOLV      7087            0.0000000000
     21374      7098  TIP3      H1              5.1831116080       20.8231322655        9.5436964919  SOLV      7087            0.0000000000
     21375      7098  TIP3      H2              4.5944261194       22.1098944524       10.1138311658  SOLV      7087            0.0000000000
     21376      7099  TIP3      OH2            -2.3141274132       33.8282996031       -8.7705731143  SOLV      7088            0.0000000000
     21377      7099  TIP3      H1             -1.3491253011       33.7156182450       -8.8514408703  SOLV      7088            0.0000000000
     21378      7099  TIP3      H2             -2.4994746348       34.1570066426       -9.6638558891  SOLV      7088            0.0000000000
     21379      7100  TIP3      OH2            -7.5924705300       27.6767139083       -6.7134713230  SOLV      7089            0.0000000000
     21380      7100  TIP3      H1             -6.6389641501       27.8622559041       -6.8629475079  SOLV      7089            0.0000000000
     21381      7100  TIP3      H2             -7.6740885132       26.7744139141       -7.0933981604  SOLV      7089            0.0000000000
     21382      7101  TIP3      OH2            -8.4941595218       33.8474888825       -2.5391806765  SOLV      7090            0.0000000000
     21383      7101  TIP3      H1             -9.1138452930       33.1898537527       -2.9278858606  SOLV      7090            0.0000000000
     21384      7101  TIP3      H2             -8.0252704425       33.2727804458       -1.8923047531  SOLV      7090            0.0000000000
     21385      7102  TIP3      OH2            -7.1682814866       32.3076513625       -0.6641848283  SOLV      7091            0.0000000000
     21386      7102  TIP3      H1             -7.2972791952       31.5509426540       -0.0683246085  SOLV      7091            0.0000000000
     21387      7102  TIP3      H2             -6.5813255824       32.8558674620       -0.1140168147  SOLV      7091            0.0000000000
     21388      7103  TIP3      OH2            10.1815485998       36.2249590379       -2.6405291225  SOLV      7092            0.0000000000
     21389      7103  TIP3      H1             10.5566457959       36.4698558506       -1.7756238481  SOLV      7092            0.0000000000
     21390      7103  TIP3      H2             10.8604280789       36.5427579885       -3.2586022697  SOLV      7092            0.0000000000
     21391      7104  TIP3      OH2            10.7029921055       36.1498112297        0.1404007126  SOLV      7093            0.0000000000
     21392      7104  TIP3      H1             10.1867545586       35.3150630001        0.0969638862  SOLV      7093            0.0000000000
     21393      7104  TIP3      H2             11.4300860101       35.8681183762        0.7208771607  SOLV      7093            0.0000000000
     21394      7105  TIP3      OH2            11.0351970101       33.2205405268        5.8360609268  SOLV      7094            0.0000000000
     21395      7105  TIP3      H1             10.2829699068       33.3710306228        6.4183653553  SOLV      7094            0.0000000000
     21396      7105  TIP3      H2             11.4513034610       34.1051754044        5.8172001643  SOLV      7094            0.0000000000
     21397      7106  TIP3      OH2             9.1922868031       28.4905454358       -7.9488956339  SOLV      7095            0.0000000000
     21398      7106  TIP3      H1              9.8056983280       29.2377426282       -8.1375180524  SOLV      7095            0.0000000000
     21399      7106  TIP3      H2              9.6586247967       28.0836390987       -7.1892325703  SOLV      7095            0.0000000000
     21400      7107  TIP3      OH2            10.3874196652       26.9997481260       -5.8990515556  SOLV      7096            0.0000000000
     21401      7107  TIP3      H1              9.6913774201       26.6266213256       -5.3173775601  SOLV      7096            0.0000000000
     21402      7107  TIP3      H2             10.9890459352       27.4307892845       -5.2602558151  SOLV      7096            0.0000000000
     21403      7108  TIP3      OH2            10.9436881848       30.9809861146       -1.5415204659  SOLV      7097            0.0000000000
     21404      7108  TIP3      H1             11.4395827087       30.2860501814       -2.0181575392  SOLV      7097            0.0000000000
     21405      7108  TIP3      H2             10.9752243105       31.7257852654       -2.1816532797  SOLV      7097            0.0000000000
     21406      7109  TIP3      OH2             9.1723531594       33.8819216970        0.3910579232  SOLV      7098            0.0000000000
     21407      7109  TIP3      H1              8.4332628492       34.3322147355        0.8394976024  SOLV      7098            0.0000000000
     21408      7109  TIP3      H2              8.7135913306       33.4349815994       -0.3559913465  SOLV      7098            0.0000000000
     21409      7110  TIP3      OH2             9.7341876541       26.1474149933       -9.4188935937  SOLV      7099            0.0000000000
     21410      7110  TIP3      H1              9.0084779142       26.1653900202      -10.0837621365  SOLV      7099            0.0000000000
     21411      7110  TIP3      H2              9.5064944601       26.9499641278       -8.9036668490  SOLV      7099            0.0000000000
     21412      7111  TIP3      OH2             8.4923474699       22.8306584158       -9.9268950293  SOLV      7100            0.0000000000
     21413      7111  TIP3      H1              7.9634566921       23.1718033817      -10.6571284771  SOLV      7100            0.0000000000
     21414      7111  TIP3      H2              8.2786406979       21.8731532000       -9.9879604252  SOLV      7100            0.0000000000
     21415      7112  TIP3      OH2             8.4753073260       25.6423026422       -4.4288553337  SOLV      7101            0.0000000000
     21416      7112  TIP3      H1              8.5464591444       24.6789502810       -4.5390368476  SOLV      7101            0.0000000000
     21417      7112  TIP3      H2              8.3396194603       25.7364486819       -3.4604288868  SOLV      7101            0.0000000000
     21418      7113  TIP3      OH2            -5.2692411892       26.3587432893        3.0652711314  SOLV      7102            0.0000000000
     21419      7113  TIP3      H1             -5.2931234598       25.9927255678        2.1538493670  SOLV      7102            0.0000000000
     21420      7113  TIP3      H2             -4.2965181803       26.3586750677        3.2280142210  SOLV      7102            0.0000000000
     21421      7114  TIP3      OH2            11.4088371926       29.8627904426        4.1546375990  SOLV      7103            0.0000000000
     21422      7114  TIP3      H1             12.1112944020       29.1826673395        4.0466425607  SOLV      7103            0.0000000000
     21423      7114  TIP3      H2             11.6344760513       30.5030533604        3.4633663686  SOLV      7103            0.0000000000
     21424      7115  TIP3      OH2            13.2256018323       27.8601978418        4.2349607905  SOLV      7104            0.0000000000
     21425      7115  TIP3      H1             12.4722234594       27.3645788658        4.6242430558  SOLV      7104            0.0000000000
     21426      7115  TIP3      H2             13.9557700419       27.2310187017        4.4244133776  SOLV      7104            0.0000000000
     21427      7116  TIP3      OH2             7.9105124089       20.1751234503      -10.1240322278  SOLV      7105            0.0000000000
     21428      7116  TIP3      H1              8.5420571598       19.8275350325       -9.4689441468  SOLV      7105            0.0000000000
     21429      7116  TIP3      H2              7.0942331972       19.6604120930       -9.9365352036  SOLV      7105            0.0000000000
     21430      7117  TIP3      OH2             8.5058431899       22.8069230224       -5.5038251359  SOLV      7106            0.0000000000
     21431      7117  TIP3      H1              8.8966858887       21.9122547244       -5.3592581598  SOLV      7106            0.0000000000
     21432      7117  TIP3      H2              9.0688125138       23.1155210673       -6.2352158468  SOLV      7106            0.0000000000
     21433      7118  TIP3      OH2            10.0638862202       24.4710865364       -0.5227368692  SOLV      7107            0.0000000000
     21434      7118  TIP3      H1             10.9144968039       24.7135713244       -0.9543076879  SOLV      7107            0.0000000000
     21435      7118  TIP3      H2             10.2261011525       24.8536419882        0.3612387283  SOLV      7107            0.0000000000
     21436      7119  TIP3      OH2            10.8120514315       25.9598260664        1.7529423805  SOLV      7108            0.0000000000
     21437      7119  TIP3      H1             10.0372071023       26.2944934149        2.2415932896  SOLV      7108            0.0000000000
     21438      7119  TIP3      H2             11.1374945913       26.7761635252        1.3145678675  SOLV      7108            0.0000000000
     21439      7120  TIP3      OH2            -3.0522409500       23.2042586655        9.8182056247  SOLV      7109            0.0000000000
     21440      7120  TIP3      H1             -2.0733033443       23.1498820713        9.8573196400  SOLV      7109            0.0000000000
     21441      7120  TIP3      H2             -3.2863717189       22.3246530540       10.1745413033  SOLV      7109            0.0000000000
     21442      7121  TIP3      OH2            15.2756199729       21.9042138883        7.3109802453  SOLV      7110            0.0000000000
     21443      7121  TIP3      H1             15.9017326595       21.2624245652        6.9110220028  SOLV      7110            0.0000000000
     21444      7121  TIP3      H2             14.9741247606       22.4068598656        6.5244238240  SOLV      7110            0.0000000000
     21445      7122  TIP3      OH2             9.5668204680       20.2951447951       -5.1161603018  SOLV      7111            0.0000000000
     21446      7122  TIP3      H1             10.0269117041       20.1189024978       -4.2698668516  SOLV      7111            0.0000000000
     21447      7122  TIP3      H2              8.9399640211       19.5418832520       -5.1412730274  SOLV      7111            0.0000000000
     21448      7123  TIP3      OH2            -3.4441271455       20.1474079062        3.1257133168  SOLV      7112            0.0000000000
     21449      7123  TIP3      H1             -2.8449233940       19.3759988271        3.1805364935  SOLV      7112            0.0000000000
     21450      7123  TIP3      H2             -2.8026109154       20.8689958231        3.0050717777  SOLV      7112            0.0000000000
     21451      7124  TIP3      OH2            -5.4577146922       22.8584562722        3.8005276602  SOLV      7113            0.0000000000
     21452      7124  TIP3      H1             -4.9582633954       22.8064820083        2.9613222069  SOLV      7113            0.0000000000
     21453      7124  TIP3      H2             -5.1223611804       23.6794623171        4.1754131029  SOLV      7113            0.0000000000
     21454      7125  TIP3      OH2            13.9672324970       23.2349978904        5.3231163527  SOLV      7114            0.0000000000
     21455      7125  TIP3      H1             13.1155745380       23.6782328600        5.5121045175  SOLV      7114            0.0000000000
     21456      7125  TIP3      H2             13.6411801028       22.4887137551        4.7799676586  SOLV      7114            0.0000000000
     21457      7126  TIP3      OH2            10.3431650587       19.5705278785       -8.7149457403  SOLV      7115            0.0000000000
     21458      7126  TIP3      H1             10.6962560743       18.8929018042       -9.3292155948  SOLV      7115            0.0000000000
     21459      7126  TIP3      H2             10.9968381292       20.2899847771       -8.7950393368  SOLV      7115            0.0000000000
     21460      7127  TIP3      OH2            -5.5679102558       17.9486251652       -1.1191204722  SOLV      7116            0.0000000000
     21461      7127  TIP3      H1             -6.5015582726       17.8336641759       -0.8751818831  SOLV      7116            0.0000000000
     21462      7127  TIP3      H2             -5.6385039864       18.5071826435       -1.9228212335  SOLV      7116            0.0000000000
     21463      7128  TIP3      OH2             5.9828418464       34.9501589151       -6.1245761021  SOLV      7117            0.0000000000
     21464      7128  TIP3      H1              6.5383070652       34.8408770741       -6.9249937386  SOLV      7117            0.0000000000
     21465      7128  TIP3      H2              6.5308229023       35.5355411044       -5.5748976174  SOLV      7117            0.0000000000
     21466      7129  TIP3      OH2            -3.3660162975       18.7183690001        6.9805350317  SOLV      7118            0.0000000000
     21467      7129  TIP3      H1             -3.8988052790       18.6575569686        7.7891792030  SOLV      7118            0.0000000000
     21468      7129  TIP3      H2             -4.0230189394       19.0795978857        6.3533988967  SOLV      7118            0.0000000000
     21469      7130  TIP3      OH2            -2.9934933392       33.0857018749        7.7884641668  SOLV      7119            0.0000000000
     21470      7130  TIP3      H1             -3.8991985576       32.7492785113        7.6808527930  SOLV      7119            0.0000000000
     21471      7130  TIP3      H2             -2.8187979916       32.8466112072        8.7169011565  SOLV      7119            0.0000000000
     21472      7131  TIP3      OH2            -1.1397100169       33.3060436756        3.2458302945  SOLV      7120            0.0000000000
     21473      7131  TIP3      H1             -1.5897147009       34.0698303221        2.8265190662  SOLV      7120            0.0000000000
     21474      7131  TIP3      H2             -0.2711783484       33.4258744431        2.8110117172  SOLV      7120            0.0000000000
     21475      7132  TIP3      OH2             3.1262293600       35.7553691408        4.5034714033  SOLV      7121            0.0000000000
     21476      7132  TIP3      H1              3.4810827539       35.8989093339        5.4060470583  SOLV      7121            0.0000000000
     21477      7132  TIP3      H2              3.7705128466       36.2751627124        3.9705777834  SOLV      7121            0.0000000000
     21478      7133  TIP3      OH2             4.9682502889       37.2326469503        3.1809556784  SOLV      7122            0.0000000000
     21479      7133  TIP3      H1              5.6243730442       36.8225078975        2.6002859129  SOLV      7122            0.0000000000
     21480      7133  TIP3      H2              5.5487103743       37.7744190272        3.7666117188  SOLV      7122            0.0000000000
     21481      7134  TIP3      OH2            12.9809984638       20.8567865155        4.1868631943  SOLV      7123            0.0000000000
     21482      7134  TIP3      H1             12.0849566143       20.7272381190        3.8288949224  SOLV      7123            0.0000000000
     21483      7134  TIP3      H2             13.3434596589       19.9432133611        4.1070278650  SOLV      7123            0.0000000000
     21484      7135  TIP3      OH2            -4.0626088933       35.9627558278        3.5515708317  SOLV      7124            0.0000000000
     21485      7135  TIP3      H1             -4.9941137903       36.0579014311        3.3339121785  SOLV      7124            0.0000000000
     21486      7135  TIP3      H2             -4.0873907374       35.5045757384        4.3999318233  SOLV      7124            0.0000000000
     21487      7136  TIP3      OH2            -1.8546109607       35.6335681148        2.0530975883  SOLV      7125            0.0000000000
     21488      7136  TIP3      H1             -2.6710067410       35.8404245799        2.5675989864  SOLV      7125            0.0000000000
     21489      7136  TIP3      H2             -2.1019375736       35.9706708075        1.1678345999  SOLV      7125            0.0000000000
     21490      7137  TIP3      OH2             2.1736124956       35.8993360806        0.0662136036  SOLV      7126            0.0000000000
     21491      7137  TIP3      H1              1.4760973554       36.0682583751       -0.5949695076  SOLV      7126            0.0000000000
     21492      7137  TIP3      H2              2.2965935947       36.7910121611        0.4657580634  SOLV      7126            0.0000000000
     21493      7138  TIP3      OH2             4.8767848294       35.3735959639        0.5946355592  SOLV      7127            0.0000000000
     21494      7138  TIP3      H1              3.9249152006       35.4969961532        0.4043922526  SOLV      7127            0.0000000000
     21495      7138  TIP3      H2              5.2744722331       36.0330623854        0.0101437119  SOLV      7127            0.0000000000
     21496      7139  TIP3      OH2             7.0436015609       37.3072155758       -0.3892009621  SOLV      7128            0.0000000000
     21497      7139  TIP3      H1              6.7548462483       37.9955951043       -1.0058694778  SOLV      7128            0.0000000000
     21498      7139  TIP3      H2              7.3153052510       36.6006016438       -1.0231591809  SOLV      7128            0.0000000000
     21499      7140  TIP3      OH2            -5.3477664563       33.7179456198        1.0136936281  SOLV      7129            0.0000000000
     21500      7140  TIP3      H1             -5.0037618395       33.4096289828        1.8821736389  SOLV      7129            0.0000000000
     21501      7140  TIP3      H2             -4.6319959137       33.3619554929        0.4367559900  SOLV      7129            0.0000000000
     21502      7141  TIP3      OH2            -3.3957582280       32.5649230510       -0.4776483127  SOLV      7130            0.0000000000
     21503      7141  TIP3      H1             -3.2366728682       31.7122983683       -0.0072670176  SOLV      7130            0.0000000000
     21504      7141  TIP3      H2             -2.4795573082       32.9036219024       -0.5532188106  SOLV      7130            0.0000000000
     21505      7142  TIP3      OH2            -0.6917938295       33.4574729514       -0.4643624119  SOLV      7131            0.0000000000
     21506      7142  TIP3      H1             -0.4044030591       32.5317132893       -0.5887604594  SOLV      7131            0.0000000000
     21507      7142  TIP3      H2             -0.2235820254       33.6595413157        0.3685709504  SOLV      7131            0.0000000000
     21508      7143  TIP3      OH2             5.0415516783       20.0363827808        0.4445060338  SOLV      7132            0.0000000000
     21509      7143  TIP3      H1              4.6122946095       19.3056533820        0.9234667449  SOLV      7132            0.0000000000
     21510      7143  TIP3      H2              5.7600472847       19.5818447753       -0.0354404838  SOLV      7132            0.0000000000
     21511      7144  TIP3      OH2            10.2184202825       18.8838106700       -0.5532400227  SOLV      7133            0.0000000000
     21512      7144  TIP3      H1             10.5754087464       19.3736295605       -1.3270668677  SOLV      7133            0.0000000000
     21513      7144  TIP3      H2              9.2588960595       19.0261649678       -0.6531245874  SOLV      7133            0.0000000000
     21514      7145  TIP3      OH2            11.1886860487       19.8076510722       -2.9303626641  SOLV      7134            0.0000000000
     21515      7145  TIP3      H1             11.9318179129       19.2983543419       -3.3182085131  SOLV      7134            0.0000000000
     21516      7145  TIP3      H2             11.5185902579       20.7249454414       -3.0767486356  SOLV      7134            0.0000000000
     21517      7146  TIP3      OH2            -2.5006938766       17.1097507609        0.5259832450  SOLV      7135            0.0000000000
     21518      7146  TIP3      H1             -3.4302583523       16.7954810330        0.5666970746  SOLV      7135            0.0000000000
     21519      7146  TIP3      H2             -2.0329144513       16.2478725013        0.4761111870  SOLV      7135            0.0000000000
     21520      7147  TIP3      OH2            -4.5573450995       15.8428698501       -2.9530167497  SOLV      7136            0.0000000000
     21521      7147  TIP3      H1             -4.2715687843       16.3799796675       -3.7143625340  SOLV      7136            0.0000000000
     21522      7147  TIP3      H2             -4.8165651439       16.5246125171       -2.3055455095  SOLV      7136            0.0000000000
     21523      7148  TIP3      OH2             2.0077845878       17.4095866316       -0.6367060006  SOLV      7137            0.0000000000
     21524      7148  TIP3      H1              2.5342363472       17.8753552509       -1.3070802075  SOLV      7137            0.0000000000
     21525      7148  TIP3      H2              2.2986150538       17.8376235428        0.1811217164  SOLV      7137            0.0000000000
     21526      7149  TIP3      OH2             7.3867083973       18.9236125695       -0.8375910104  SOLV      7138            0.0000000000
     21527      7149  TIP3      H1              7.3956966265       18.5021127964       -1.7076578664  SOLV      7138            0.0000000000
     21528      7149  TIP3      H2              7.2861557718       18.1414204974       -0.2442089553  SOLV      7138            0.0000000000
     21529      7150  TIP3      OH2             7.7284827995       18.1802931550       -5.1773652337  SOLV      7139            0.0000000000
     21530      7150  TIP3      H1              6.8656658172       18.6112828371       -5.0275161630  SOLV      7139            0.0000000000
     21531      7150  TIP3      H2              7.5759438337       17.3131186790       -4.7435553769  SOLV      7139            0.0000000000
     21532      7151  TIP3      OH2            -7.4438237775       31.4294395593       -5.2399177719  SOLV      7140            0.0000000000
     21533      7151  TIP3      H1             -8.3192847976       31.0660326559       -5.4588436765  SOLV      7140            0.0000000000
     21534      7151  TIP3      H2             -7.5527249732       32.3382400987       -5.5815631950  SOLV      7140            0.0000000000
     21535      7152  TIP3      OH2            -3.4194659203       17.3714942250       -5.3362333175  SOLV      7141            0.0000000000
     21536      7152  TIP3      H1             -2.9585759703       16.7662945535       -5.9522096294  SOLV      7141            0.0000000000
     21537      7152  TIP3      H2             -2.6740173731       17.9059276887       -4.9974083701  SOLV      7141            0.0000000000
     21538      7153  TIP3      OH2             1.6205487368       19.2069347711       -4.3532461514  SOLV      7142            0.0000000000
     21539      7153  TIP3      H1              2.2321866920       18.7047546703       -3.7909792571  SOLV      7142            0.0000000000
     21540      7153  TIP3      H2              1.8828421704       20.1219515280       -4.1090506681  SOLV      7142            0.0000000000
     21541      7154  TIP3      OH2             0.3203904446       33.3294978243       -9.3258808957  SOLV      7143            0.0000000000
     21542      7154  TIP3      H1              1.1897249202       33.5533502251       -9.7245331357  SOLV      7143            0.0000000000
     21543      7154  TIP3      H2              0.0521273870       32.6180495333       -9.9535353565  SOLV      7143            0.0000000000
     21544      7155  TIP3      OH2             7.4787752931       34.6063883487       -8.4254322548  SOLV      7144            0.0000000000
     21545      7155  TIP3      H1              7.3750513489       33.6261029176       -8.5069793522  SOLV      7144            0.0000000000
     21546      7155  TIP3      H2              7.0283161296       34.8947494063       -9.2421570813  SOLV      7144            0.0000000000
     21547      7156  TIP3      OH2            -0.4193590536       19.9378787163        9.4626073865  SOLV      7145            0.0000000000
     21548      7156  TIP3      H1             -0.7886581875       19.2216221162       10.0088760519  SOLV      7145            0.0000000000
     21549      7156  TIP3      H2              0.5201079161       19.9159677013        9.7499077395  SOLV      7145            0.0000000000
     21550      7157  TIP3      OH2             2.0988325327       19.9031062651       10.6355701655  SOLV      7146            0.0000000000
     21551      7157  TIP3      H1              2.9464932177       19.6460027328       10.2347462247  SOLV      7146            0.0000000000
     21552      7157  TIP3      H2              1.9745073849       19.1939076673       11.3003377660  SOLV      7146            0.0000000000
     21553      7158  TIP3      OH2            -6.5947216485       31.8822212983       -8.7266600553  SOLV      7147            0.0000000000
     21554      7158  TIP3      H1             -6.5822237168       31.7779337587       -7.7673455815  SOLV      7147            0.0000000000
     21555      7158  TIP3      H2             -5.7653818790       31.4151130557       -8.9885539896  SOLV      7147            0.0000000000
     21556      7159  TIP3      OH2            10.3733663417       20.5498408391        8.4980822359  SOLV      7148            0.0000000000
     21557      7159  TIP3      H1             10.5366406223       20.2340421042        9.4140134965  SOLV      7148            0.0000000000
     21558      7159  TIP3      H2             11.2718095484       20.4897722438        8.1093494948  SOLV      7148            0.0000000000
     21559      7160  TIP3      OH2             9.5746407027       36.0483672756        3.5143793131  SOLV      7149            0.0000000000
     21560      7160  TIP3      H1              8.8601853200       35.7849279663        2.8982590395  SOLV      7149            0.0000000000
     21561      7160  TIP3      H2              9.4432790584       37.0199064360        3.5230073205  SOLV      7149            0.0000000000
     21562      7161  TIP3      OH2            22.3945152026       29.7254589455       -8.8347270068  SOLV      7150            0.0000000000
     21563      7161  TIP3      H1             22.0317788631       30.6232364364       -8.9820706588  SOLV      7150            0.0000000000
     21564      7161  TIP3      H2             21.6654035881       29.1925773711       -9.1950898266  SOLV      7150            0.0000000000
     21565      7162  TIP3      OH2            22.3830131153       29.7900219788       -5.0272482459  SOLV      7151            0.0000000000
     21566      7162  TIP3      H1             22.7446431431       29.5274043840       -4.1594281970  SOLV      7151            0.0000000000
     21567      7162  TIP3      H2             21.9808091605       28.9601379002       -5.3319833091  SOLV      7151            0.0000000000
     21568      7163  TIP3      OH2            15.3540682158       28.6814737993       -1.4262253586  SOLV      7152            0.0000000000
     21569      7163  TIP3      H1             15.6543112447       27.9855042563       -0.8125291126  SOLV      7152            0.0000000000
     21570      7163  TIP3      H2             16.1632659785       29.2004478551       -1.5309110176  SOLV      7152            0.0000000000
     21571      7164  TIP3      OH2            24.7848378321       32.6073755785       -8.2247325537  SOLV      7153            0.0000000000
     21572      7164  TIP3      H1             24.7508364642       31.7985123938       -7.6977519196  SOLV      7153            0.0000000000
     21573      7164  TIP3      H2             24.4889801672       33.2688695819       -7.5885197190  SOLV      7153            0.0000000000
     21574      7165  TIP3      OH2            15.1206713435       32.8636914326       -4.2066701491  SOLV      7154            0.0000000000
     21575      7165  TIP3      H1             15.0312504052       31.8853479242       -4.2120358022  SOLV      7154            0.0000000000
     21576      7165  TIP3      H2             16.0868582610       32.9468545061       -4.2944528561  SOLV      7154            0.0000000000
     21577      7166  TIP3      OH2            12.1818367023       24.8237352324       -6.4221263468  SOLV      7155            0.0000000000
     21578      7166  TIP3      H1             11.6996539645       25.6450271514       -6.2095161679  SOLV      7155            0.0000000000
     21579      7166  TIP3      H2             11.4639781729       24.3175855036       -6.8460028584  SOLV      7155            0.0000000000
     21580      7167  TIP3      OH2            12.6882127330       27.7388596187       -4.5177054789  SOLV      7156            0.0000000000
     21581      7167  TIP3      H1             13.2453696460       26.9627678103       -4.2890724757  SOLV      7156            0.0000000000
     21582      7167  TIP3      H2             13.1785650711       28.1543803253       -5.2408455977  SOLV      7156            0.0000000000
     21583      7168  TIP3      OH2            20.8208792956       37.0799314273       -8.1266942308  SOLV      7157            0.0000000000
     21584      7168  TIP3      H1             21.4067973852       36.5850027222       -8.7176982915  SOLV      7157            0.0000000000
     21585      7168  TIP3      H2             21.4439775268       37.4756467741       -7.5019134753  SOLV      7157            0.0000000000
     21586      7169  TIP3      OH2            20.3501394881       32.0342349928       -4.6175529655  SOLV      7158            0.0000000000
     21587      7169  TIP3      H1             20.7635334555       31.2487086549       -5.0144524045  SOLV      7158            0.0000000000
     21588      7169  TIP3      H2             21.1703037447       32.5077889090       -4.3582265373  SOLV      7158            0.0000000000
     21589      7170  TIP3      OH2            30.5236878730       25.1541699301       -4.6138408364  SOLV      7159            0.0000000000
     21590      7170  TIP3      H1             30.8101871474       26.0040714271       -4.2245552474  SOLV      7159            0.0000000000
     21591      7170  TIP3      H2             30.8466126999       25.2440562034       -5.5330078504  SOLV      7159            0.0000000000
     21592      7171  TIP3      OH2            24.4755368573       27.0297566065       -4.3158559393  SOLV      7160            0.0000000000
     21593      7171  TIP3      H1             24.9235752293       26.1900804167       -4.0968142624  SOLV      7160            0.0000000000
     21594      7171  TIP3      H2             24.1566473580       26.8346692883       -5.2182782762  SOLV      7160            0.0000000000
     21595      7172  TIP3      OH2            17.9273679124       23.6318043757       -4.6709824473  SOLV      7161            0.0000000000
     21596      7172  TIP3      H1             17.7143579846       24.3544916596       -5.2972215469  SOLV      7161            0.0000000000
     21597      7172  TIP3      H2             17.4318660670       22.8946787357       -5.0913243817  SOLV      7161            0.0000000000
     21598      7173  TIP3      OH2            24.8514727356       24.5595808921       -8.4709586063  SOLV      7162            0.0000000000
     21599      7173  TIP3      H1             25.5572672354       24.4248060895       -7.7955341885  SOLV      7162            0.0000000000
     21600      7173  TIP3      H2             25.3977739104       24.8635181618       -9.2230449283  SOLV      7162            0.0000000000
     21601      7174  TIP3      OH2            14.2275407058       25.6438998005       -3.5884534080  SOLV      7163            0.0000000000
     21602      7174  TIP3      H1             15.0481839964       25.4505113443       -3.0981011070  SOLV      7163            0.0000000000
     21603      7174  TIP3      H2             14.3668674687       25.0827366917       -4.3808115091  SOLV      7163            0.0000000000
     21604      7175  TIP3      OH2            18.6066017633       27.6045276122       -5.5920531751  SOLV      7164            0.0000000000
     21605      7175  TIP3      H1             19.5552089786       27.3776420801       -5.4825735658  SOLV      7164            0.0000000000
     21606      7175  TIP3      H2             18.2368373539       26.7610810430       -5.9288395060  SOLV      7164            0.0000000000
     21607      7176  TIP3      OH2            31.2626976838       27.2922488783       -2.9293671615  SOLV      7165            0.0000000000
     21608      7176  TIP3      H1             30.3927456638       27.7343536862       -3.0229493371  SOLV      7165            0.0000000000
     21609      7176  TIP3      H2             31.6329857889       27.7592078552       -2.1533184370  SOLV      7165            0.0000000000
     21610      7177  TIP3      OH2            17.8504592895       23.4727140984       -0.2919144957  SOLV      7166            0.0000000000
     21611      7177  TIP3      H1             17.2561068809       23.8391051540       -0.9739509388  SOLV      7166            0.0000000000
     21612      7177  TIP3      H2             17.3144292426       23.6379994870        0.5116985131  SOLV      7166            0.0000000000
     21613      7178  TIP3      OH2            21.1315031062       31.9085502854       -9.9642095418  SOLV      7167            0.0000000000
     21614      7178  TIP3      H1             21.5162296744       31.9349650996      -10.8481480512  SOLV      7167            0.0000000000
     21615      7178  TIP3      H2             20.7417191901       32.7998329529       -9.8745193356  SOLV      7167            0.0000000000
     21616      7179  TIP3      OH2            18.9180171467       31.2425199460       -2.4000678581  SOLV      7168            0.0000000000
     21617      7179  TIP3      H1             18.3162197511       31.9283780047       -2.0344318590  SOLV      7168            0.0000000000
     21618      7179  TIP3      H2             19.3172183070       31.7107991559       -3.1633216553  SOLV      7168            0.0000000000
     21619      7180  TIP3      OH2            26.8636264622       24.6354234634       -6.6644951540  SOLV      7169            0.0000000000
     21620      7180  TIP3      H1             26.7768429015       24.1670586010       -5.8258249431  SOLV      7169            0.0000000000
     21621      7180  TIP3      H2             27.4004677686       25.4105399202       -6.4077988099  SOLV      7169            0.0000000000
     21622      7181  TIP3      OH2            16.5814854656       24.6106509929       -2.4744375166  SOLV      7170            0.0000000000
     21623      7181  TIP3      H1             17.1993199952       25.3330156760       -2.2223518631  SOLV      7170            0.0000000000
     21624      7181  TIP3      H2             17.0796881137       24.2147059162       -3.2255730522  SOLV      7170            0.0000000000
     21625      7182  TIP3      OH2            17.2222131430       33.1954582880       -1.3558643245  SOLV      7171            0.0000000000
     21626      7182  TIP3      H1             16.9729257394       34.0685678618       -1.7245862281  SOLV      7171            0.0000000000
     21627      7182  TIP3      H2             16.4157477051       33.0162827748       -0.8267244537  SOLV      7171            0.0000000000
     21628      7183  TIP3      OH2            25.6912792235       34.7569122406       -6.1711742598  SOLV      7172            0.0000000000
     21629      7183  TIP3      H1             24.7720022148       34.7345768035       -5.8143221097  SOLV      7172            0.0000000000
     21630      7183  TIP3      H2             25.9358579364       35.6477032529       -5.8951948285  SOLV      7172            0.0000000000
     21631      7184  TIP3      OH2            28.4415774075       24.1696137692       -2.9865470676  SOLV      7173            0.0000000000
     21632      7184  TIP3      H1             27.5866988520       24.4786861126       -3.3279209174  SOLV      7173            0.0000000000
     21633      7184  TIP3      H2             29.0726595284       24.5178266993       -3.6522582970  SOLV      7173            0.0000000000
     21634      7185  TIP3      OH2            21.3493011750       20.6066787508       -3.1369880963  SOLV      7174            0.0000000000
     21635      7185  TIP3      H1             21.1871987774       19.6633002863       -2.9400125100  SOLV      7174            0.0000000000
     21636      7185  TIP3      H2             20.5894481485       21.0158120476       -2.6667776704  SOLV      7174            0.0000000000
     21637      7186  TIP3      OH2            22.4060690396       35.7143704991      -10.1498654773  SOLV      7175            0.0000000000
     21638      7186  TIP3      H1             22.9249645713       34.8912796221      -10.3229494013  SOLV      7175            0.0000000000
     21639      7186  TIP3      H2             23.1601022217       36.2827511488       -9.9059042105  SOLV      7175            0.0000000000
     21640      7187  TIP3      OH2            23.9191421568       33.4870863002      -10.7563578582  SOLV      7176            0.0000000000
     21641      7187  TIP3      H1             23.9865599381       32.7640733811      -11.4125470900  SOLV      7176            0.0000000000
     21642      7187  TIP3      H2             24.3050282578       33.0809125637       -9.9523479090  SOLV      7176            0.0000000000
     21643      7188  TIP3      OH2            27.5307018434       34.3061095894       -3.5625096676  SOLV      7177            0.0000000000
     21644      7188  TIP3      H1             27.4115841714       33.4444613243       -4.0156225550  SOLV      7177            0.0000000000
     21645      7188  TIP3      H2             27.6273313014       34.8953298235       -4.3226057160  SOLV      7177            0.0000000000
     21646      7189  TIP3      OH2            20.7914750147       28.2600538275      -10.6451110773  SOLV      7178            0.0000000000
     21647      7189  TIP3      H1             19.9941423200       28.7875917610      -10.8459182813  SOLV      7178            0.0000000000
     21648      7189  TIP3      H2             21.1935274406       28.1476508514      -11.5275727247  SOLV      7178            0.0000000000
     21649      7190  TIP3      OH2            29.5957849538       30.4835352998       -4.7485304458  SOLV      7179            0.0000000000
     21650      7190  TIP3      H1             28.8084050326       31.0575305028       -4.8142620775  SOLV      7179            0.0000000000
     21651      7190  TIP3      H2             30.2686487722       31.0437508115       -5.1679067216  SOLV      7179            0.0000000000
     21652      7191  TIP3      OH2            24.1280730801       29.0665487770      -10.8569788174  SOLV      7180            0.0000000000
     21653      7191  TIP3      H1             23.5938250188       29.2916707310      -10.0618311816  SOLV      7180            0.0000000000
     21654      7191  TIP3      H2             24.9137076381       28.6665946164      -10.4207277378  SOLV      7180            0.0000000000
     21655      7192  TIP3      OH2            26.4861920332       29.4211533406       -1.7085326917  SOLV      7181            0.0000000000
     21656      7192  TIP3      H1             26.5119288456       30.2259023335       -1.1468476047  SOLV      7181            0.0000000000
     21657      7192  TIP3      H2             25.6051854776       29.5145375443       -2.1241848443  SOLV      7181            0.0000000000
     21658      7193  TIP3      OH2            16.5241516036       29.0758827761       -6.7164160079  SOLV      7182            0.0000000000
     21659      7193  TIP3      H1             16.1203538382       28.5234709600       -7.4154577025  SOLV      7182            0.0000000000
     21660      7193  TIP3      H2             17.2662896760       28.5181652422       -6.4030389310  SOLV      7182            0.0000000000
     21661      7194  TIP3      OH2            17.7960469411       33.2025531136       -5.2337246849  SOLV      7183            0.0000000000
     21662      7194  TIP3      H1             17.5641789970       32.8674006638       -6.1143997302  SOLV      7183            0.0000000000
     21663      7194  TIP3      H2             18.6831143239       32.8131472912       -5.0889705067  SOLV      7183            0.0000000000
     21664      7195  TIP3      OH2            17.8594184927       28.7876009150       -3.1395599750  SOLV      7184            0.0000000000
     21665      7195  TIP3      H1             18.1671886393       28.5344568828       -4.0349917773  SOLV      7184            0.0000000000
     21666      7195  TIP3      H2             18.2822038402       29.6615708274       -3.0035501061  SOLV      7184            0.0000000000
     21667      7196  TIP3      OH2            23.2310005900       35.1637172932       -5.2357712138  SOLV      7185            0.0000000000
     21668      7196  TIP3      H1             22.9542131256       35.9967765950       -4.8031639406  SOLV      7185            0.0000000000
     21669      7196  TIP3      H2             22.8810428656       34.4697732145       -4.6442105381  SOLV      7185            0.0000000000
     21670      7197  TIP3      OH2            19.2490674254       34.3803999040        0.0845573124  SOLV      7186            0.0000000000
     21671      7197  TIP3      H1             18.6079960663       34.9807212303        0.5243492482  SOLV      7186            0.0000000000
     21672      7197  TIP3      H2             18.6286499023       33.8372221298       -0.4468871880  SOLV      7186            0.0000000000
     21673      7198  TIP3      OH2            22.6449822205       27.8790380366      -12.8394449138  SOLV      7187            0.0000000000
     21674      7198  TIP3      H1             23.2297076048       28.4158652919      -12.2637648022  SOLV      7187            0.0000000000
     21675      7198  TIP3      H2             22.9760022801       28.0932050763      -13.7396499875  SOLV      7187            0.0000000000
     21676      7199  TIP3      OH2            16.8150914899       29.8978205743        1.1546402170  SOLV      7188            0.0000000000
     21677      7199  TIP3      H1             16.8443086705       30.7908393550        1.5510624585  SOLV      7188            0.0000000000
     21678      7199  TIP3      H2             15.8652533767       29.6878912546        1.2669389801  SOLV      7188            0.0000000000
     21679      7200  TIP3      OH2            19.9402262963       34.4806648074      -10.1820751101  SOLV      7189            0.0000000000
     21680      7200  TIP3      H1             20.7636580887       34.9836851522      -10.0261578216  SOLV      7189            0.0000000000
     21681      7200  TIP3      H2             19.2703476881       35.0991049464       -9.8608727795  SOLV      7189            0.0000000000
     21682      7201  TIP3      OH2            17.1799118360       36.0256765207        0.9662365020  SOLV      7190            0.0000000000
     21683      7201  TIP3      H1             16.8414550064       36.0780798538        0.0508323444  SOLV      7190            0.0000000000
     21684      7201  TIP3      H2             16.3632480604       35.8245296458        1.4752114908  SOLV      7190            0.0000000000
     21685      7202  TIP3      OH2            27.7223457411       20.0707307730      -12.1226787591  SOLV      7191            0.0000000000
     21686      7202  TIP3      H1             26.9103614311       20.3142693646      -11.6337736004  SOLV      7191            0.0000000000
     21687      7202  TIP3      H2             27.8968540463       20.8976593754      -12.6199991253  SOLV      7191            0.0000000000
     21688      7203  TIP3      OH2            15.2129835234       27.5800179588       -8.8220463797  SOLV      7192            0.0000000000
     21689      7203  TIP3      H1             14.4620403805       28.0197507079       -9.2843883091  SOLV      7192            0.0000000000
     21690      7203  TIP3      H2             14.7801452688       26.7913168151       -8.4795674210  SOLV      7192            0.0000000000
     21691      7204  TIP3      OH2            12.9627734854       31.3661514258        0.4040342039  SOLV      7193            0.0000000000
     21692      7204  TIP3      H1             12.2944879107       31.1730834123       -0.2874027083  SOLV      7193            0.0000000000
     21693      7204  TIP3      H2             13.3427506438       30.4836241335        0.5876258140  SOLV      7193            0.0000000000
     21694      7205  TIP3      OH2            11.5189032110       33.2227255826       -3.1355684604  SOLV      7194            0.0000000000
     21695      7205  TIP3      H1             12.4514064468       33.1801297620       -3.3819555970  SOLV      7194            0.0000000000
     21696      7205  TIP3      H2             11.4743091717       34.0767488595       -2.6818026510  SOLV      7194            0.0000000000
     21697      7206  TIP3      OH2            21.2297139556       35.6656225872       -1.3022887687  SOLV      7195            0.0000000000
     21698      7206  TIP3      H1             21.1555976511       36.5972190760       -1.0161412574  SOLV      7195            0.0000000000
     21699      7206  TIP3      H2             20.4914929214       35.2528734446       -0.7996809140  SOLV      7195            0.0000000000
     21700      7207  TIP3      OH2            18.4621576065       36.9964888766      -11.9640715223  SOLV      7196            0.0000000000
     21701      7207  TIP3      H1             17.8174616626       37.2352885234      -12.6366482328  SOLV      7196            0.0000000000
     21702      7207  TIP3      H2             18.2504850833       37.6220069087      -11.2556090679  SOLV      7196            0.0000000000
     21703      7208  TIP3      OH2            13.1570586738       35.4632416759       -8.0922686233  SOLV      7197            0.0000000000
     21704      7208  TIP3      H1             13.5425192289       35.3134380554       -7.2017176636  SOLV      7197            0.0000000000
     21705      7208  TIP3      H2             12.6201813338       34.6647448241       -8.2043613793  SOLV      7197            0.0000000000
     21706      7209  TIP3      OH2            21.0019819753       36.0823055117      -12.6114323960  SOLV      7198            0.0000000000
     21707      7209  TIP3      H1             20.0720684525       36.2534405264      -12.3520425794  SOLV      7198            0.0000000000
     21708      7209  TIP3      H2             21.3578474248       35.6557873686      -11.8110095920  SOLV      7198            0.0000000000
     21709      7210  TIP3      OH2            29.0507831081       29.0765428850       -0.0598348716  SOLV      7199            0.0000000000
     21710      7210  TIP3      H1             28.2263702649       29.1294261837       -0.5615951433  SOLV      7199            0.0000000000
     21711      7210  TIP3      H2             29.2439935109       28.1173272593       -0.0881246349  SOLV      7199            0.0000000000
     21712      7211  TIP3      OH2            15.0018005715       33.2014220351        0.2708380571  SOLV      7200            0.0000000000
     21713      7211  TIP3      H1             15.4991799231       32.9980074732        1.0874487324  SOLV      7200            0.0000000000
     21714      7211  TIP3      H2             14.2588787181       32.5633783667        0.3215977594  SOLV      7200            0.0000000000
     21715      7212  TIP3      OH2            19.0012582299       21.4121725532       -1.8280308662  SOLV      7201            0.0000000000
     21716      7212  TIP3      H1             18.1238445620       21.1070248853       -2.1417071054  SOLV      7201            0.0000000000
     21717      7212  TIP3      H2             18.7215326792       22.2050738915       -1.3279586034  SOLV      7201            0.0000000000
     21718      7213  TIP3      OH2            24.3766089850       22.5587787985        0.1036991775  SOLV      7202            0.0000000000
     21719      7213  TIP3      H1             25.0690554328       22.2676625142        0.7323508392  SOLV      7202            0.0000000000
     21720      7213  TIP3      H2             23.5476938126       22.3653633331        0.5872097231  SOLV      7202            0.0000000000
     21721      7214  TIP3      OH2            26.6770765831       26.8112021659       -0.7349447180  SOLV      7203            0.0000000000
     21722      7214  TIP3      H1             26.1806460682       26.8281741791        0.1142473984  SOLV      7203            0.0000000000
     21723      7214  TIP3      H2             26.4822023714       27.6919596062       -1.1115148212  SOLV      7203            0.0000000000
     21724      7215  TIP3      OH2            20.3478814777       22.0464256707      -12.2526562526  SOLV      7204            0.0000000000
     21725      7215  TIP3      H1             20.0660359900       22.0011678432      -11.3142664969  SOLV      7204            0.0000000000
     21726      7215  TIP3      H2             19.9911792743       21.1822170119      -12.5504379671  SOLV      7204            0.0000000000
     21727      7216  TIP3      OH2            18.3416118732       26.5765868083       -1.6502290453  SOLV      7205            0.0000000000
     21728      7216  TIP3      H1             17.8187679742       26.7776225166       -0.8457142563  SOLV      7205            0.0000000000
     21729      7216  TIP3      H2             18.1845326574       27.3910510597       -2.1806399341  SOLV      7205            0.0000000000
     21730      7217  TIP3      OH2            17.1451413768       25.4316015288       -6.5446244677  SOLV      7206            0.0000000000
     21731      7217  TIP3      H1             16.2262945797       25.1682357793       -6.3174279500  SOLV      7206            0.0000000000
     21732      7217  TIP3      H2             17.2274406334       25.0183343313       -7.4309039185  SOLV      7206            0.0000000000
     21733      7218  TIP3      OH2            22.0789151221       26.2486897800       -9.2450866620  SOLV      7207            0.0000000000
     21734      7218  TIP3      H1             21.6060070606       26.9781932412       -9.7010125538  SOLV      7207            0.0000000000
     21735      7218  TIP3      H2             22.6615284304       25.9284464986       -9.9632331491  SOLV      7207            0.0000000000
     21736      7219  TIP3      OH2            23.7834254758       29.0209513182        1.5825764989  SOLV      7208            0.0000000000
     21737      7219  TIP3      H1             23.5761622105       28.3041990688        2.2230440089  SOLV      7208            0.0000000000
     21738      7219  TIP3      H2             24.7194968263       29.1743316765        1.7793458208  SOLV      7208            0.0000000000
     21739      7220  TIP3      OH2            23.6345779522       26.5344660518       -6.8812169879  SOLV      7209            0.0000000000
     21740      7220  TIP3      H1             23.0102926024       26.8111956833       -7.5821815416  SOLV      7209            0.0000000000
     21741      7220  TIP3      H2             24.0122447675       25.7534428389       -7.3389208322  SOLV      7209            0.0000000000
     21742      7221  TIP3      OH2            16.5357120946       26.8440857617        0.4101789704  SOLV      7210            0.0000000000
     21743      7221  TIP3      H1             16.8255291600       27.4690835807        1.0903214332  SOLV      7210            0.0000000000
     21744      7221  TIP3      H2             16.4050616948       26.0229275279        0.9251122459  SOLV      7210            0.0000000000
     21745      7222  TIP3      OH2            17.1147041352       21.6887794304      -12.5172603517  SOLV      7211            0.0000000000
     21746      7222  TIP3      H1             16.9803775343       21.6591841918      -11.5476436912  SOLV      7211            0.0000000000
     21747      7222  TIP3      H2             16.2577324428       22.0635601610      -12.8075004033  SOLV      7211            0.0000000000
     21748      7223  TIP3      OH2            12.4415720906       22.0401859800       -3.7521132987  SOLV      7212            0.0000000000
     21749      7223  TIP3      H1             13.2016503282       22.3753511862       -3.2356039877  SOLV      7212            0.0000000000
     21750      7223  TIP3      H2             12.8338404207       21.7585541973       -4.5916949035  SOLV      7212            0.0000000000
     21751      7224  TIP3      OH2            12.0868245304       21.8852732303       -8.6177162966  SOLV      7213            0.0000000000
     21752      7224  TIP3      H1             12.5790753930       22.2677690400       -9.3720029342  SOLV      7213            0.0000000000
     21753      7224  TIP3      H2             11.4657396768       22.6163695277       -8.4301354085  SOLV      7213            0.0000000000
     21754      7225  TIP3      OH2            23.7368746569       29.0171239129       -2.6666335092  SOLV      7214            0.0000000000
     21755      7225  TIP3      H1             24.0715853531       28.3066763890       -3.2642004529  SOLV      7214            0.0000000000
     21756      7225  TIP3      H2             23.4190144823       28.4662286761       -1.9184205502  SOLV      7214            0.0000000000
     21757      7226  TIP3      OH2            20.4888217574       23.6721637576       -5.9405784595  SOLV      7215            0.0000000000
     21758      7226  TIP3      H1             19.6905760471       23.6533161392       -5.3759383763  SOLV      7215            0.0000000000
     21759      7226  TIP3      H2             21.2030330433       23.5528867597       -5.2898081331  SOLV      7215            0.0000000000
     21760      7227  TIP3      OH2            14.7783821190       24.2275564678       -5.8781037101  SOLV      7216            0.0000000000
     21761      7227  TIP3      H1             13.8327465985       24.3228554266       -6.1504550671  SOLV      7216            0.0000000000
     21762      7227  TIP3      H2             14.9682413374       23.2938823276       -6.0790955822  SOLV      7216            0.0000000000
     21763      7228  TIP3      OH2            17.3806023313       24.1792420900       -9.0076811581  SOLV      7217            0.0000000000
     21764      7228  TIP3      H1             18.3530670392       24.2868367605       -9.0554494654  SOLV      7217            0.0000000000
     21765      7228  TIP3      H2             17.0854837044       24.4839222001       -9.8884204442  SOLV      7217            0.0000000000
     21766      7229  TIP3      OH2            25.3560513839       24.4404789176       -3.8625174192  SOLV      7218            0.0000000000
     21767      7229  TIP3      H1             25.0136686151       24.5645820309       -2.9496788431  SOLV      7218            0.0000000000
     21768      7229  TIP3      H2             24.6952439892       23.8301879029       -4.2268146207  SOLV      7218            0.0000000000
     21769      7230  TIP3      OH2            15.9729383407       24.7101044682      -11.4423568564  SOLV      7219            0.0000000000
     21770      7230  TIP3      H1             15.1226880638       24.5438693832      -11.0105312156  SOLV      7219            0.0000000000
     21771      7230  TIP3      H2             15.8281385703       24.2032651307      -12.2706883431  SOLV      7219            0.0000000000
     21772      7231  TIP3      OH2            16.6386120502       32.4193469504        2.4922393901  SOLV      7220            0.0000000000
     21773      7231  TIP3      H1             17.4320183575       32.7086231898        2.9826906408  SOLV      7220            0.0000000000
     21774      7231  TIP3      H2             15.9905489672       32.3635822969        3.2218325668  SOLV      7220            0.0000000000
     21775      7232  TIP3      OH2            21.2538434348       26.9714541885       -4.9420720219  SOLV      7221            0.0000000000
     21776      7232  TIP3      H1             21.9922219957       26.5673575565       -5.4218856977  SOLV      7221            0.0000000000
     21777      7232  TIP3      H2             21.2815016033       26.5053295036       -4.0845630167  SOLV      7221            0.0000000000
     21778      7233  TIP3      OH2            16.4571249949       21.7835737273       -6.0948234352  SOLV      7222            0.0000000000
     21779      7233  TIP3      H1             16.0445694235       21.0544914159       -5.5791292604  SOLV      7222            0.0000000000
     21780      7233  TIP3      H2             16.9448818944       21.2836403579       -6.7613980075  SOLV      7222            0.0000000000
     21781      7234  TIP3      OH2            21.0213719557       25.9690762571       -2.1006451133  SOLV      7223            0.0000000000
     21782      7234  TIP3      H1             20.1137697424       26.2931314124       -1.9271202100  SOLV      7223            0.0000000000
     21783      7234  TIP3      H2             21.5786104090       26.5816366818       -1.5822102623  SOLV      7223            0.0000000000
     21784      7235  TIP3      OH2            18.3883624451       29.7901205857      -11.1372259818  SOLV      7224            0.0000000000
     21785      7235  TIP3      H1             17.7550048045       29.0419565396      -11.1927977451  SOLV      7224            0.0000000000
     21786      7235  TIP3      H2             18.1964328624       30.1266866607      -10.2256538687  SOLV      7224            0.0000000000
     21787      7236  TIP3      OH2            27.3246048781       32.0850719814       -5.1297637441  SOLV      7225            0.0000000000
     21788      7236  TIP3      H1             27.1546234662       32.2825367756       -6.0643824934  SOLV      7225            0.0000000000
     21789      7236  TIP3      H2             26.5024942819       31.5756273633       -4.9513576830  SOLV      7225            0.0000000000
     21790      7237  TIP3      OH2            22.9587078005       22.9141105235      -12.4103872717  SOLV      7226            0.0000000000
     21791      7237  TIP3      H1             21.9980860459       22.7539516934      -12.2890049371  SOLV      7226            0.0000000000
     21792      7237  TIP3      H2             23.0675077947       23.8591261223      -12.1724506200  SOLV      7226            0.0000000000
     21793      7238  TIP3      OH2            22.4000584248       33.0079299486       -1.1394074635  SOLV      7227            0.0000000000
     21794      7238  TIP3      H1             22.6705016672       32.7797381311       -0.2419649197  SOLV      7227            0.0000000000
     21795      7238  TIP3      H2             22.0075604879       33.8920393125       -1.0373931091  SOLV      7227            0.0000000000
     21796      7239  TIP3      OH2            23.6207644910       25.4748560335      -11.4764754649  SOLV      7228            0.0000000000
     21797      7239  TIP3      H1             24.5824419752       25.5150764939      -11.3041721542  SOLV      7228            0.0000000000
     21798      7239  TIP3      H2             23.4751331100       26.2667005071      -12.0309883865  SOLV      7228            0.0000000000
     21799      7240  TIP3      OH2            15.3869814988       30.1085071100       -4.3656487649  SOLV      7229            0.0000000000
     21800      7240  TIP3      H1             15.6982059999       29.7999039957       -5.2403507018  SOLV      7229            0.0000000000
     21801      7240  TIP3      H2             15.7825925363       29.4564964826       -3.7705833371  SOLV      7229            0.0000000000
     21802      7241  TIP3      OH2            19.4291368673       31.4552370757      -13.0391257864  SOLV      7230            0.0000000000
     21803      7241  TIP3      H1             20.0067558108       32.0486894330      -12.5447052381  SOLV      7230            0.0000000000
     21804      7241  TIP3      H2             19.1057208588       30.8473742934      -12.3361071499  SOLV      7230            0.0000000000
     21805      7242  TIP3      OH2            14.1622200081       29.2265145104        1.7886585804  SOLV      7231            0.0000000000
     21806      7242  TIP3      H1             14.3001239193       29.0697385728        2.7428378600  SOLV      7231            0.0000000000
     21807      7242  TIP3      H2             13.4581006119       28.5852656045        1.5865851539  SOLV      7231            0.0000000000
     21808      7243  TIP3      OH2            21.4114836361       30.4374277773        1.9563140654  SOLV      7232            0.0000000000
     21809      7243  TIP3      H1             20.7776768292       29.8241074852        1.5489560993  SOLV      7232            0.0000000000
     21810      7243  TIP3      H2             22.2627891634       30.0427835324        1.6667618820  SOLV      7232            0.0000000000
     21811      7244  TIP3      OH2            24.0648429029       35.5143724976       -2.0614793611  SOLV      7233            0.0000000000
     21812      7244  TIP3      H1             23.0947910315       35.5613566789       -2.0976610894  SOLV      7233            0.0000000000
     21813      7244  TIP3      H2             24.2547160825       36.0565363996       -1.2754268525  SOLV      7233            0.0000000000
     21814      7245  TIP3      OH2            28.0438328826       26.3483389356      -13.0893738314  SOLV      7234            0.0000000000
     21815      7245  TIP3      H1             27.4537625722       25.8902248670      -13.7371200333  SOLV      7234            0.0000000000
     21816      7245  TIP3      H2             27.7848520552       27.2651292427      -13.3403574295  SOLV      7234            0.0000000000
     21817      7246  TIP3      OH2            24.9637504465       30.7543608249       -5.6034354946  SOLV      7235            0.0000000000
     21818      7246  TIP3      H1             24.0207183088       30.5091205540       -5.5079105848  SOLV      7235            0.0000000000
     21819      7246  TIP3      H2             25.3123065499       29.9446588305       -6.0355273768  SOLV      7235            0.0000000000
     21820      7247  TIP3      OH2            16.3055160139       33.0011635531       -8.0591661714  SOLV      7236            0.0000000000
     21821      7247  TIP3      H1             16.1451887795       33.8085271016       -8.5977312889  SOLV      7236            0.0000000000
     21822      7247  TIP3      H2             15.4057986143       32.6707355246       -7.9386138068  SOLV      7236            0.0000000000
     21823      7248  TIP3      OH2            11.9997209395       26.1277126495      -10.9712187181  SOLV      7237            0.0000000000
     21824      7248  TIP3      H1             12.3882385048       27.0104337387      -10.7759985710  SOLV      7237            0.0000000000
     21825      7248  TIP3      H2             11.2004761904       26.1599182100      -10.3962119426  SOLV      7237            0.0000000000
     21826      7249  TIP3      OH2            17.6237505068       30.6932189594       -8.7219628850  SOLV      7238            0.0000000000
     21827      7249  TIP3      H1             17.2966445773       31.5898943263       -8.5039389767  SOLV      7238            0.0000000000
     21828      7249  TIP3      H2             17.3055762797       30.1905400459       -7.9488618186  SOLV      7238            0.0000000000
     21829      7250  TIP3      OH2            19.0438033217       36.4882429019       -3.4086014702  SOLV      7239            0.0000000000
     21830      7250  TIP3      H1             19.4241072975       37.2237826247       -3.9399999361  SOLV      7239            0.0000000000
     21831      7250  TIP3      H2             19.8446434580       36.1194668162       -3.0088429382  SOLV      7239            0.0000000000
     21832      7251  TIP3      OH2            15.5633912304       35.2540937236       -9.5136193584  SOLV      7240            0.0000000000
     21833      7251  TIP3      H1             14.6856450758       35.4467944240       -9.1298787343  SOLV      7240            0.0000000000
     21834      7251  TIP3      H2             15.9197073797       36.1610253855       -9.6112525004  SOLV      7240            0.0000000000
     21835      7252  TIP3      OH2            22.8399129275       32.8245616086       -3.8036536549  SOLV      7241            0.0000000000
     21836      7252  TIP3      H1             22.7507425569       32.8196116746       -2.8227573517  SOLV      7241            0.0000000000
     21837      7252  TIP3      H2             23.5948975905       32.2359103187       -3.9350365311  SOLV      7241            0.0000000000
     21838      7253  TIP3      OH2            21.8401562501       31.7730591415      -14.9991393345  SOLV      7242            0.0000000000
     21839      7253  TIP3      H1             22.7608827975       32.0187062859      -14.8307064907  SOLV      7242            0.0000000000
     21840      7253  TIP3      H2             21.6446291367       31.2064531954      -14.2437806336  SOLV      7242            0.0000000000
     21841      7254  TIP3      OH2            16.2041305731       24.2966957930        1.8220495532  SOLV      7243            0.0000000000
     21842      7254  TIP3      H1             15.2331820397       24.3145728134        1.9324623076  SOLV      7243            0.0000000000
     21843      7254  TIP3      H2             16.4768187124       23.7443500458        2.5724365268  SOLV      7243            0.0000000000
     21844      7255  TIP3      OH2            24.0626426577       31.2724727353      -12.4595288605  SOLV      7244            0.0000000000
     21845      7255  TIP3      H1             24.1123667243       30.4788507450      -11.8854625777  SOLV      7244            0.0000000000
     21846      7255  TIP3      H2             24.7507611069       31.0784337063      -13.1087400117  SOLV      7244            0.0000000000
     21847      7256  TIP3      OH2            13.4018645074       35.1052071231       -1.8072483918  SOLV      7245            0.0000000000
     21848      7256  TIP3      H1             13.9682977871       34.4254955777       -1.4058524413  SOLV      7245            0.0000000000
     21849      7256  TIP3      H2             13.7294381613       35.9179673538       -1.3883869496  SOLV      7245            0.0000000000
     21850      7257  TIP3      OH2            16.3134162137       31.9708582826      -14.7766608227  SOLV      7246            0.0000000000
     21851      7257  TIP3      H1             16.7835039798       31.4712110216      -15.4733227816  SOLV      7246            0.0000000000
     21852      7257  TIP3      H2             16.1319094677       31.2386372845      -14.1614407795  SOLV      7246            0.0000000000
     21853      7258  TIP3      OH2            16.2098833085       32.5124320861      -11.9628751859  SOLV      7247            0.0000000000
     21854      7258  TIP3      H1             16.8520435224       31.8285833346      -11.6786095149  SOLV      7247            0.0000000000
     21855      7258  TIP3      H2             15.4302139084       32.2410249842      -11.4220062046  SOLV      7247            0.0000000000
     21856      7259  TIP3      OH2            13.1369432894       28.5549145420      -10.3297815109  SOLV      7248            0.0000000000
     21857      7259  TIP3      H1             12.6985476024       29.0775897083       -9.6062434456  SOLV      7248            0.0000000000
     21858      7259  TIP3      H2             13.2490513149       29.2894661103      -10.9625440550  SOLV      7248            0.0000000000
     21859      7260  TIP3      OH2            24.6045797533       24.9558436369       -1.2550617797  SOLV      7249            0.0000000000
     21860      7260  TIP3      H1             25.4560341197       25.3210951724       -0.9559333867  SOLV      7249            0.0000000000
     21861      7260  TIP3      H2             24.5200461964       24.1359859786       -0.7210166806  SOLV      7249            0.0000000000
     21862      7261  TIP3      OH2            23.4261421730       22.4208989434       -9.5840540489  SOLV      7250            0.0000000000
     21863      7261  TIP3      H1             23.3501049188       22.6430343747      -10.5299072503  SOLV      7250            0.0000000000
     21864      7261  TIP3      H2             23.8349981172       23.2362824471       -9.2169090402  SOLV      7250            0.0000000000
     21865      7262  TIP3      OH2            20.1820848058       24.3053347769       -8.6053227513  SOLV      7251            0.0000000000
     21866      7262  TIP3      H1             20.8485528515       25.0038252594       -8.7871169790  SOLV      7251            0.0000000000
     21867      7262  TIP3      H2             20.3044155314       24.1807830426       -7.6371999702  SOLV      7251            0.0000000000
     21868      7263  TIP3      OH2            23.0030285418       27.3970827941       -0.6125792685  SOLV      7252            0.0000000000
     21869      7263  TIP3      H1             23.2585531647       27.8797016728        0.1998123965  SOLV      7252            0.0000000000
     21870      7263  TIP3      H2             23.5171948851       26.5713846053       -0.5452430354  SOLV      7252            0.0000000000
     21871      7264  TIP3      OH2            21.6994534695       21.4339842988       -7.6373317344  SOLV      7253            0.0000000000
     21872      7264  TIP3      H1             21.7098316676       22.1831657333       -7.0150079980  SOLV      7253            0.0000000000
     21873      7264  TIP3      H2             22.3268032777       21.7648534166       -8.3220931457  SOLV      7253            0.0000000000
     21874      7265  TIP3      OH2            16.8881678824       21.5241818021       -9.7674465000  SOLV      7254            0.0000000000
     21875      7265  TIP3      H1             16.8859404261       22.3964590402       -9.3241612626  SOLV      7254            0.0000000000
     21876      7265  TIP3      H2             17.8385554370       21.3032107569       -9.6859207871  SOLV      7254            0.0000000000
     21877      7266  TIP3      OH2            29.3724609042       26.4011442097       -0.6534008035  SOLV      7255            0.0000000000
     21878      7266  TIP3      H1             28.3912979539       26.3554988871       -0.6673615990  SOLV      7255            0.0000000000
     21879      7266  TIP3      H2             29.5793735851       26.1282448117       -1.5569110319  SOLV      7255            0.0000000000
     21880      7267  TIP3      OH2            25.8669358492       28.3883650061       -6.7598952649  SOLV      7256            0.0000000000
     21881      7267  TIP3      H1             25.1294744730       27.7614125715       -6.6556251096  SOLV      7256            0.0000000000
     21882      7267  TIP3      H2             26.6040485909       27.9177953196       -6.3120393044  SOLV      7256            0.0000000000
     21883      7268  TIP3      OH2            13.4918415188       30.8000616500      -12.0557686776  SOLV      7257            0.0000000000
     21884      7268  TIP3      H1             12.7575204368       31.4037280710      -12.2580391174  SOLV      7257            0.0000000000
     21885      7268  TIP3      H2             13.5761424130       30.2713068972      -12.8720176174  SOLV      7257            0.0000000000
     21886      7269  TIP3      OH2            12.5785274638       23.4789143877      -10.8403857259  SOLV      7258            0.0000000000
     21887      7269  TIP3      H1             12.4320162685       24.4484042057      -10.8272019027  SOLV      7258            0.0000000000
     21888      7269  TIP3      H2             11.7762357002       23.1705427339      -11.2813476294  SOLV      7258            0.0000000000
     21889      7270  TIP3      OH2            16.3570568024       20.6102567167       -2.1464652762  SOLV      7259            0.0000000000
     21890      7270  TIP3      H1             16.0521720025       20.2554308439       -3.0087886908  SOLV      7259            0.0000000000
     21891      7270  TIP3      H2             16.2466999510       19.8350088220       -1.5589147690  SOLV      7259            0.0000000000
     21892      7271  TIP3      OH2            13.2944691863       38.1081959289        2.6578287587  SOLV      7260            0.0000000000
     21893      7271  TIP3      H1             14.1724090643       38.1183717458        3.0974211289  SOLV      7260            0.0000000000
     21894      7271  TIP3      H2             13.1193935463       37.1535700622        2.5929477030  SOLV      7260            0.0000000000
     21895      7272  TIP3      OH2            18.0887833528       37.7843933631        2.9120025397  SOLV      7261            0.0000000000
     21896      7272  TIP3      H1             19.0432968802       37.6426731873        2.8784705881  SOLV      7261            0.0000000000
     21897      7272  TIP3      H2             17.7908464353       37.2089926685        2.1770378491  SOLV      7261            0.0000000000
     21898      7273  TIP3      OH2            24.7036958593       36.8240416207        0.3047091319  SOLV      7262            0.0000000000
     21899      7273  TIP3      H1             24.3060400722       36.1528152091        0.9106170651  SOLV      7262            0.0000000000
     21900      7273  TIP3      H2             25.6360701749       36.7123686443        0.5350906454  SOLV      7262            0.0000000000
     21901      7274  TIP3      OH2            14.6065323677       32.2986683390        4.3966793137  SOLV      7263            0.0000000000
     21902      7274  TIP3      H1             14.7653485636       31.3384126730        4.4856116045  SOLV      7263            0.0000000000
     21903      7274  TIP3      H2             13.7465030957       32.3115247463        3.9228336349  SOLV      7263            0.0000000000
     21904      7275  TIP3      OH2            14.4060750780       28.8912352918      -13.8121171039  SOLV      7264            0.0000000000
     21905      7275  TIP3      H1             14.8113368558       28.4865461028      -13.0296917038  SOLV      7264            0.0000000000
     21906      7275  TIP3      H2             15.1125186217       28.7374735624      -14.4843962806  SOLV      7264            0.0000000000
     21907      7276  TIP3      OH2            20.6718654730       33.1832304655        2.1524973442  SOLV      7265            0.0000000000
     21908      7276  TIP3      H1             20.2536287563       33.3889497196        1.2901782796  SOLV      7265            0.0000000000
     21909      7276  TIP3      H2             20.9748046331       32.2576388534        2.0269469790  SOLV      7265            0.0000000000
     21910      7277  TIP3      OH2            19.0099059815       30.5410876763      -15.7017068399  SOLV      7266            0.0000000000
     21911      7277  TIP3      H1             19.2823821398       30.8784018324      -14.8236869007  SOLV      7266            0.0000000000
     21912      7277  TIP3      H2             19.3324557558       29.6164110796      -15.6464565340  SOLV      7266            0.0000000000
     21913      7278  TIP3      OH2            25.7079548744       33.3529024340       -1.7654144108  SOLV      7267            0.0000000000
     21914      7278  TIP3      H1             26.3184328733       33.6824914079       -2.4515551315  SOLV      7267            0.0000000000
     21915      7278  TIP3      H2             24.9606923112       33.9777482591       -1.8829863118  SOLV      7267            0.0000000000
     21916      7279  TIP3      OH2            15.8295664280       29.7015549729        4.2480533682  SOLV      7268            0.0000000000
     21917      7279  TIP3      H1             16.5841079317       29.1733688022        3.9616394298  SOLV      7268            0.0000000000
     21918      7279  TIP3      H2             16.1238579881       29.9979130366        5.1360314580  SOLV      7268            0.0000000000
     21919      7280  TIP3      OH2            16.4973836072       27.6821466999      -11.2569193522  SOLV      7269            0.0000000000
     21920      7280  TIP3      H1             16.1154313116       27.7378444165      -10.3565723151  SOLV      7269            0.0000000000
     21921      7280  TIP3      H2             16.4160412155       26.7282197175      -11.4296730631  SOLV      7269            0.0000000000
     21922      7281  TIP3      OH2            19.1761924810       28.4908155970        0.8730808256  SOLV      7270            0.0000000000
     21923      7281  TIP3      H1             18.3779631032       29.0625272257        0.8530376998  SOLV      7270            0.0000000000
     21924      7281  TIP3      H2             19.6882240833       28.8401713413        0.1057528627  SOLV      7270            0.0000000000
     21925      7282  TIP3      OH2            24.3706396137       32.4937792485        2.1470407925  SOLV      7271            0.0000000000
     21926      7282  TIP3      H1             25.2919526049       32.3222485580        1.8990602711  SOLV      7271            0.0000000000
     21927      7282  TIP3      H2             24.2366394297       31.8243841770        2.8421607490  SOLV      7271            0.0000000000
     21928      7283  TIP3      OH2            20.4148976020       26.3881989621        2.0724187301  SOLV      7272            0.0000000000
     21929      7283  TIP3      H1             20.4077273378       25.6019900113        1.4887371553  SOLV      7272            0.0000000000
     21930      7283  TIP3      H2             19.9609697520       27.0602496019        1.5155446129  SOLV      7272            0.0000000000
     21931      7284  TIP3      OH2            20.4311481637       24.2601110190        0.1910222108  SOLV      7273            0.0000000000
     21932      7284  TIP3      H1             20.7119280698       24.6548355873       -0.6557518128  SOLV      7273            0.0000000000
     21933      7284  TIP3      H2             19.4971810107       24.0242308903        0.0014268104  SOLV      7273            0.0000000000
     21934      7285  TIP3      OH2            20.6442265075       29.5875905763       -1.0675374724  SOLV      7274            0.0000000000
     21935      7285  TIP3      H1             21.5022742165       29.7123005417       -1.4910109001  SOLV      7274            0.0000000000
     21936      7285  TIP3      H2             20.0764125891       30.2244752221       -1.5533144785  SOLV      7274            0.0000000000
     21937      7286  TIP3      OH2            26.6547327968       29.1619716840        2.8976392682  SOLV      7275            0.0000000000
     21938      7286  TIP3      H1             26.9922176170       28.3185627121        2.5557917161  SOLV      7275            0.0000000000
     21939      7286  TIP3      H2             27.2959468978       29.7892308875        2.5257802630  SOLV      7275            0.0000000000
     21940      7287  TIP3      OH2            26.9251425078       31.6441507067       -0.0810645762  SOLV      7276            0.0000000000
     21941      7287  TIP3      H1             26.3586022292       32.2661270093       -0.5959794425  SOLV      7276            0.0000000000
     21942      7287  TIP3      H2             27.8104685850       31.8983655444       -0.4357869589  SOLV      7276            0.0000000000
     21943      7288  TIP3      OH2            19.1715219248       27.4186663211        4.4154685082  SOLV      7277            0.0000000000
     21944      7288  TIP3      H1             18.5061627009       26.7205336763        4.5878700882  SOLV      7277            0.0000000000
     21945      7288  TIP3      H2             19.5000770499       27.1588793684        3.5323399626  SOLV      7277            0.0000000000
     21946      7289  TIP3      OH2            21.7421245455       21.8528428812        0.8918112407  SOLV      7278            0.0000000000
     21947      7289  TIP3      H1             21.2339073191       22.6585720944        0.6599107862  SOLV      7278            0.0000000000
     21948      7289  TIP3      H2             21.0626825097       21.1555889424        0.7821808897  SOLV      7278            0.0000000000
     21949      7290  TIP3      OH2            22.9904462488       26.8525448779        3.0334433305  SOLV      7279            0.0000000000
     21950      7290  TIP3      H1             22.8055156816       26.6908055984        3.9783309549  SOLV      7279            0.0000000000
     21951      7290  TIP3      H2             22.1035686794       26.6395460996        2.6682423390  SOLV      7279            0.0000000000
     21952      7291  TIP3      OH2            25.4414477420       26.5039893490        1.6578955072  SOLV      7280            0.0000000000
     21953      7291  TIP3      H1             24.6564592018       26.4362282477        2.2385367824  SOLV      7280            0.0000000000
     21954      7291  TIP3      H2             26.1490126574       26.1412563190        2.2302134643  SOLV      7280            0.0000000000
     21955      7292  TIP3      OH2            27.6520375052       25.8414561846        3.2324314173  SOLV      7281            0.0000000000
     21956      7292  TIP3      H1             27.8052587136       24.8728047539        3.2772313263  SOLV      7281            0.0000000000
     21957      7292  TIP3      H2             27.6869622920       26.0897839446        4.1735987923  SOLV      7281            0.0000000000
     21958      7293  TIP3      OH2            17.5742423491       25.2284249278        4.9898893943  SOLV      7282            0.0000000000
     21959      7293  TIP3      H1             17.5910852589       24.3029025199        4.6736666155  SOLV      7282            0.0000000000
     21960      7293  TIP3      H2             17.9606561495       25.1182679432        5.8842536690  SOLV      7282            0.0000000000
     21961      7294  TIP3      OH2            22.6733954166       21.9627223953        3.4762967261  SOLV      7283            0.0000000000
     21962      7294  TIP3      H1             23.3248362817       21.2367808155        3.4056154473  SOLV      7283            0.0000000000
     21963      7294  TIP3      H2             22.2705837518       21.9219119661        2.5849893292  SOLV      7283            0.0000000000
     21964      7295  TIP3      OH2            23.3656214317       24.1183287457        5.0422757616  SOLV      7284            0.0000000000
     21965      7295  TIP3      H1             23.1545289521       23.3959984681        4.4099170117  SOLV      7284            0.0000000000
     21966      7295  TIP3      H2             22.5672360292       24.6827541199        4.9802763052  SOLV      7284            0.0000000000
     21967      7296  TIP3      OH2            16.3364390748       35.5311706181      -14.0922790583  SOLV      7285            0.0000000000
     21968      7296  TIP3      H1             16.6043370109       36.3263822906      -14.6042189035  SOLV      7285            0.0000000000
     21969      7296  TIP3      H2             15.3740713450       35.6078069173      -14.2028144115  SOLV      7285            0.0000000000
     21970      7297  TIP3      OH2            10.3877128083       30.3877767078      -12.3501999492  SOLV      7286            0.0000000000
     21971      7297  TIP3      H1             10.8290937741       30.4129107723      -11.4803933658  SOLV      7286            0.0000000000
     21972      7297  TIP3      H2             10.3086175255       29.4220992899      -12.5114961264  SOLV      7286            0.0000000000
     21973      7298  TIP3      OH2             9.4268763967       36.4172132846       -7.7241870175  SOLV      7287            0.0000000000
     21974      7298  TIP3      H1              8.8056276814       35.7292216510       -8.0513354347  SOLV      7287            0.0000000000
     21975      7298  TIP3      H2              9.9181301015       35.8896503598       -7.0485705712  SOLV      7287            0.0000000000
     21976      7299  TIP3      OH2            10.7838734811       35.0079212954       -5.8529595550  SOLV      7288            0.0000000000
     21977      7299  TIP3      H1             10.6911363545       34.1155549557       -5.4906970060  SOLV      7288            0.0000000000
     21978      7299  TIP3      H2             11.3661648995       35.4280749573       -5.1933974437  SOLV      7288            0.0000000000
     21979      7300  TIP3      OH2            27.8495623553       29.8955483249      -10.5725743605  SOLV      7289            0.0000000000
     21980      7300  TIP3      H1             27.0487920154       29.3472025380      -10.5066743733  SOLV      7289            0.0000000000
     21981      7300  TIP3      H2             28.4716447870       29.3262531105      -10.0953127459  SOLV      7289            0.0000000000
     21982      7301  TIP3      OH2            27.1257259046       28.5976925701      -14.3146646979  SOLV      7290            0.0000000000
     21983      7301  TIP3      H1             26.9674497494       28.4356506281      -15.2632828715  SOLV      7290            0.0000000000
     21984      7301  TIP3      H2             27.9362390756       29.1248256568      -14.3686153951  SOLV      7290            0.0000000000
     21985      7302  TIP3      OH2            26.3990275005       25.3808029050      -15.0174286794  SOLV      7291            0.0000000000
     21986      7302  TIP3      H1             25.8756476398       25.8766533547      -15.6634098564  SOLV      7291            0.0000000000
     21987      7302  TIP3      H2             26.1335800122       24.4604703078      -15.2248086427  SOLV      7291            0.0000000000
     21988      7303  TIP3      OH2            26.1681852759       27.9492776943       -9.4870015024  SOLV      7292            0.0000000000
     21989      7303  TIP3      H1             26.4466364662       27.0206785025       -9.5515397615  SOLV      7292            0.0000000000
     21990      7303  TIP3      H2             26.1593753547       28.1122754590       -8.5199218335  SOLV      7292            0.0000000000
     21991      7304  TIP3      OH2            12.6962396392       28.8893235296       -2.0233828055  SOLV      7293            0.0000000000
     21992      7304  TIP3      H1             12.6393839967       28.5470557270       -2.9433123150  SOLV      7293            0.0000000000
     21993      7304  TIP3      H2             13.6740121607       28.9086795239       -1.9010881829  SOLV      7293            0.0000000000
     21994      7305  TIP3      OH2            29.2788703642       32.5079913995       -1.0956929233  SOLV      7294            0.0000000000
     21995      7305  TIP3      H1             30.0599430228       31.9413674665       -0.9092905174  SOLV      7294            0.0000000000
     21996      7305  TIP3      H2             29.6463314744       33.1442406513       -1.7199907172  SOLV      7294            0.0000000000
     21997      7306  TIP3      OH2            31.2046555025       30.6385804663       -0.5033551629  SOLV      7295            0.0000000000
     21998      7306  TIP3      H1             30.4099637987       30.0783801607       -0.3623640634  SOLV      7295            0.0000000000
     21999      7306  TIP3      H2             31.8841241031       29.9399080701       -0.5778985260  SOLV      7295            0.0000000000
     22000      7307  TIP3      OH2            25.8347284582       22.6960006575      -15.2255719139  SOLV      7296            0.0000000000
     22001      7307  TIP3      H1             26.6010925267       22.4609414187      -14.6641871733  SOLV      7296            0.0000000000
     22002      7307  TIP3      H2             25.1514456322       22.0704909203      -14.9525959344  SOLV      7296            0.0000000000
     22003      7308  TIP3      OH2            26.4121277705       25.2843745464      -10.6576207179  SOLV      7297            0.0000000000
     22004      7308  TIP3      H1             26.8468496358       24.4054333177      -10.5430388508  SOLV      7297            0.0000000000
     22005      7308  TIP3      H2             27.0029793312       25.6754222675      -11.3256528499  SOLV      7297            0.0000000000
     22006      7309  TIP3      OH2            28.0138151923       27.0416729270       -5.6718440710  SOLV      7298            0.0000000000
     22007      7309  TIP3      H1             28.8505569370       27.3055837772       -6.1211843682  SOLV      7298            0.0000000000
     22008      7309  TIP3      H2             28.2085441305       27.3704011632       -4.7720987668  SOLV      7298            0.0000000000
     22009      7310  TIP3      OH2            28.7097587450       28.3661335568       -3.3025475816  SOLV      7299            0.0000000000
     22010      7310  TIP3      H1             27.9406059304       28.7532384830       -2.8442329814  SOLV      7299            0.0000000000
     22011      7310  TIP3      H2             29.0449074930       29.1431276249       -3.8105560624  SOLV      7299            0.0000000000
     22012      7311  TIP3      OH2            14.9195328938       25.7795773066        4.7035113531  SOLV      7300            0.0000000000
     22013      7311  TIP3      H1             15.8981271168       25.7174244486        4.7351457002  SOLV      7300            0.0000000000
     22014      7311  TIP3      H2             14.6812496915       24.8955162038        5.0459801980  SOLV      7300            0.0000000000
     22015      7312  TIP3      OH2            33.4673053113       24.5379594088        2.1950256173  SOLV      7301            0.0000000000
     22016      7312  TIP3      H1             33.9737895050       23.8541368093        1.7060897275  SOLV      7301            0.0000000000
     22017      7312  TIP3      H2             33.0284980851       25.0147924640        1.4545677458  SOLV      7301            0.0000000000
     22018      7313  TIP3      OH2            27.5415618933       22.8267362377      -10.2451632298  SOLV      7302            0.0000000000
     22019      7313  TIP3      H1             28.0209483196       22.6730946464       -9.4045977129  SOLV      7302            0.0000000000
     22020      7313  TIP3      H2             26.9246119664       22.0667390284      -10.2445624549  SOLV      7302            0.0000000000
     22021      7314  TIP3      OH2            14.5204710865       22.7045069117       -2.0338402200  SOLV      7303            0.0000000000
     22022      7314  TIP3      H1             15.1273544210       21.9415351244       -1.9598162996  SOLV      7303            0.0000000000
     22023      7314  TIP3      H2             15.1543775542       23.4370430867       -2.1254182062  SOLV      7303            0.0000000000
     22024      7315  TIP3      OH2            12.5201185585       25.4209433272       -1.3291548307  SOLV      7304            0.0000000000
     22025      7315  TIP3      H1             13.0025642256       25.3931869198       -2.1792324211  SOLV      7304            0.0000000000
     22026      7315  TIP3      H2             12.7972035075       26.2750933424       -0.9802440735  SOLV      7304            0.0000000000
     22027      7316  TIP3      OH2            31.8822024211       25.7348217273        0.3274905575  SOLV      7305            0.0000000000
     22028      7316  TIP3      H1             31.0404411144       26.2162492822        0.4667007295  SOLV      7305            0.0000000000
     22029      7316  TIP3      H2             31.5713755731       25.0551694491       -0.3037134289  SOLV      7305            0.0000000000
     22030      7317  TIP3      OH2            28.2511310760       22.1466628397      -13.9007667042  SOLV      7306            0.0000000000
     22031      7317  TIP3      H1             28.6511531843       21.4590490471      -14.4732467547  SOLV      7306            0.0000000000
     22032      7317  TIP3      H2             28.9156211821       22.8611873048      -13.9374358072  SOLV      7306            0.0000000000
     22033      7318  TIP3      OH2            12.3868658607       20.5043076502       -6.2983690370  SOLV      7307            0.0000000000
     22034      7318  TIP3      H1             11.4615583623       20.3996108828       -6.0158529840  SOLV      7307            0.0000000000
     22035      7318  TIP3      H2             12.2925720419       21.0784272694       -7.0871609328  SOLV      7307            0.0000000000
     22036      7319  TIP3      OH2            14.5921193611       21.2737103073        1.8416477401  SOLV      7308            0.0000000000
     22037      7319  TIP3      H1             14.0642091190       21.2221634991        2.6543114830  SOLV      7308            0.0000000000
     22038      7319  TIP3      H2             13.9365905363       21.6483048400        1.2201451876  SOLV      7308            0.0000000000
     22039      7320  TIP3      OH2            14.9692576568       35.6182067635        2.6222210057  SOLV      7309            0.0000000000
     22040      7320  TIP3      H1             14.0656567683       35.3145319519        2.4234797432  SOLV      7309            0.0000000000
     22041      7320  TIP3      H2             15.0890036702       35.3160169488        3.5305476546  SOLV      7309            0.0000000000
     22042      7321  TIP3      OH2            16.8338823159       35.8845397243       -1.8783818682  SOLV      7310            0.0000000000
     22043      7321  TIP3      H1             16.3660944693       36.6553069398       -2.2605359166  SOLV      7310            0.0000000000
     22044      7321  TIP3      H2             17.6829412161       36.0117876854       -2.3515233263  SOLV      7310            0.0000000000
     22045      7322  TIP3      OH2            21.3431635823       38.4381601013       -0.6081031415  SOLV      7311            0.0000000000
     22046      7322  TIP3      H1             21.6033383956       38.4243579312        0.3432822911  SOLV      7311            0.0000000000
     22047      7322  TIP3      H2             22.1814456055       38.6926404581       -1.0134230193  SOLV      7311            0.0000000000
     22048      7323  TIP3      OH2            30.9325341265       23.4203113905       -0.9630252863  SOLV      7312            0.0000000000
     22049      7323  TIP3      H1             30.0355638051       23.3293477517       -1.3299483217  SOLV      7312            0.0000000000
     22050      7323  TIP3      H2             31.2674953559       22.4972001440       -1.0455738045  SOLV      7312            0.0000000000
     22051      7324  TIP3      OH2            13.7745048426       38.0554330070       -1.6472145103  SOLV      7313            0.0000000000
     22052      7324  TIP3      H1             12.8385294073       38.3176383663       -1.7923919379  SOLV      7313            0.0000000000
     22053      7324  TIP3      H2             13.9862879460       38.6817102644       -0.9210031108  SOLV      7313            0.0000000000
     22054      7325  TIP3      OH2            16.0884762706       38.2322300745       -3.0319300633  SOLV      7314            0.0000000000
     22055      7325  TIP3      H1             15.2000108622       38.2116395943       -2.6102794682  SOLV      7314            0.0000000000
     22056      7325  TIP3      H2             15.8614983834       38.5688581163       -3.9254710398  SOLV      7314            0.0000000000
     22057      7326  TIP3      OH2            20.0689589815       38.5054561457       -4.9488176626  SOLV      7315            0.0000000000
     22058      7326  TIP3      H1             19.4289261901       38.5936609694       -5.6822395061  SOLV      7315            0.0000000000
     22059      7326  TIP3      H2             20.2310190262       39.4379329911       -4.7028061893  SOLV      7315            0.0000000000
     22060      7327  TIP3      OH2            22.7196800503       37.7877447271       -4.5208773914  SOLV      7316            0.0000000000
     22061      7327  TIP3      H1             21.7882820372       38.0806430997       -4.5251513968  SOLV      7316            0.0000000000
     22062      7327  TIP3      H2             23.0050550981       38.1352655188       -5.3898210355  SOLV      7316            0.0000000000
     22063      7328  TIP3      OH2            12.5919287765       36.2848201419       -4.1599814699  SOLV      7317            0.0000000000
     22064      7328  TIP3      H1             12.9104022780       35.9981754125       -3.2761778980  SOLV      7317            0.0000000000
     22065      7328  TIP3      H2             13.3130699136       35.9100981062       -4.7166531169  SOLV      7317            0.0000000000
     22066      7329  TIP3      OH2            14.5149040287       35.0892246800       -5.6657497153  SOLV      7318            0.0000000000
     22067      7329  TIP3      H1             14.6889825585       34.2621968923       -5.1558953207  SOLV      7318            0.0000000000
     22068      7329  TIP3      H2             15.4189756128       35.4586460328       -5.7268805301  SOLV      7318            0.0000000000
     22069      7330  TIP3      OH2            17.2291945796       36.0139728822       -5.5761637297  SOLV      7319            0.0000000000
     22070      7330  TIP3      H1             17.5369745434       35.0941414651       -5.6819578205  SOLV      7319            0.0000000000
     22071      7330  TIP3      H2             17.7081997411       36.2499884649       -4.7598686631  SOLV      7319            0.0000000000
     22072      7331  TIP3      OH2            22.9346497178       22.5620468590       -4.7960440975  SOLV      7320            0.0000000000
     22073      7331  TIP3      H1             22.5577069960       21.8442556889       -4.2570518294  SOLV      7320            0.0000000000
     22074      7331  TIP3      H2             23.7250010792       22.1407296348       -5.1893131494  SOLV      7320            0.0000000000
     22075      7332  TIP3      OH2            28.1658621305       21.4278985014       -5.6732209819  SOLV      7321            0.0000000000
     22076      7332  TIP3      H1             28.5412437977       21.9102542485       -6.4440630447  SOLV      7321            0.0000000000
     22077      7332  TIP3      H2             27.2144721782       21.6111241425       -5.7667625688  SOLV      7321            0.0000000000
     22078      7333  TIP3      OH2            29.1331381059       22.3358136278       -8.0481864286  SOLV      7322            0.0000000000
     22079      7333  TIP3      H1             29.8653560676       21.8060093286       -8.4341445544  SOLV      7322            0.0000000000
     22080      7333  TIP3      H2             29.4871496105       23.2402746881       -8.2225954961  SOLV      7322            0.0000000000
     22081      7334  TIP3      OH2            15.4640235675       19.6724850003       -4.6143470959  SOLV      7323            0.0000000000
     22082      7334  TIP3      H1             14.5348077000       19.3558250244       -4.5677132067  SOLV      7323            0.0000000000
     22083      7334  TIP3      H2             15.9324776211       18.8109517574       -4.6600100764  SOLV      7323            0.0000000000
     22084      7335  TIP3      OH2            13.4031860612       18.4143713742       -8.0503121976  SOLV      7324            0.0000000000
     22085      7335  TIP3      H1             13.6400161608       18.9730096921       -8.8085364629  SOLV      7324            0.0000000000
     22086      7335  TIP3      H2             13.1051822826       19.0748888809       -7.3944234116  SOLV      7324            0.0000000000
     22087      7336  TIP3      OH2            19.9377810346       20.0027387983       -5.7819992001  SOLV      7325            0.0000000000
     22088      7336  TIP3      H1             20.4925779226       20.4673700911       -6.4296248938  SOLV      7325            0.0000000000
     22089      7336  TIP3      H2             20.2366744450       20.3899048483       -4.9458924982  SOLV      7325            0.0000000000
     22090      7337  TIP3      OH2            25.3109190202       21.4840534286       -5.9560947931  SOLV      7326            0.0000000000
     22091      7337  TIP3      H1             25.4080568660       21.0541153236       -6.8167130198  SOLV      7326            0.0000000000
     22092      7337  TIP3      H2             25.2199986251       20.7012398234       -5.3613935132  SOLV      7326            0.0000000000
     22093      7338  TIP3      OH2            25.6782663323       20.7318603714      -10.3107342574  SOLV      7327            0.0000000000
     22094      7338  TIP3      H1             24.8148479004       21.1438089454      -10.1283497699  SOLV      7327            0.0000000000
     22095      7338  TIP3      H2             25.5608010096       19.8612527471       -9.8721170707  SOLV      7327            0.0000000000
     22096      7339  TIP3      OH2            10.8390511816       34.0384020775      -10.9182879110  SOLV      7328            0.0000000000
     22097      7339  TIP3      H1             10.3056370920       33.4078113793      -10.4052674428  SOLV      7328            0.0000000000
     22098      7339  TIP3      H2             10.4099435412       34.8832512084      -10.7145165460  SOLV      7328            0.0000000000
     22099      7340  TIP3      OH2            14.5656022532       19.9867592902      -10.5282710570  SOLV      7329            0.0000000000
     22100      7340  TIP3      H1             15.0202383837       19.3160962766      -11.0751621128  SOLV      7329            0.0000000000
     22101      7340  TIP3      H2             15.3207802597       20.4835725776      -10.1575443752  SOLV      7329            0.0000000000
     22102      7341  TIP3      OH2            19.6750642076       21.7939655464       -9.5642442037  SOLV      7330            0.0000000000
     22103      7341  TIP3      H1             20.2342583151       21.2883904944       -8.9492067953  SOLV      7330            0.0000000000
     22104      7341  TIP3      H2             19.8805698870       22.7044747773       -9.2574336049  SOLV      7330            0.0000000000
     22105      7342  TIP3      OH2            17.5475855399       22.4986010808        4.3282738186  SOLV      7331            0.0000000000
     22106      7342  TIP3      H1             17.1767405387       21.7849046967        4.8776831829  SOLV      7331            0.0000000000
     22107      7342  TIP3      H2             18.4858742562       22.4780907221        4.6192316510  SOLV      7331            0.0000000000
     22108      7343  TIP3      OH2            20.0632412603       22.4673652759        5.5100432950  SOLV      7332            0.0000000000
     22109      7343  TIP3      H1             20.9117286199       22.1983233253        5.1194887809  SOLV      7332            0.0000000000
     22110      7343  TIP3      H2             19.9317253992       21.7675445187        6.1841845867  SOLV      7332            0.0000000000
     22111      7344  TIP3      OH2            11.4055036342       34.5069859474      -13.7279236709  SOLV      7333            0.0000000000
     22112      7344  TIP3      H1             11.1617161587       34.3749499329      -12.7876449820  SOLV      7333            0.0000000000
     22113      7344  TIP3      H2             12.1896490351       33.9420076256      -13.8127414704  SOLV      7333            0.0000000000
     22114      7345  TIP3      OH2            28.3237470113       23.1356284094        3.3885007960  SOLV      7334            0.0000000000
     22115      7345  TIP3      H1             28.4443562418       22.7704823991        4.2925943529  SOLV      7334            0.0000000000
     22116      7345  TIP3      H2             29.2270074590       23.0523300694        3.0194823532  SOLV      7334            0.0000000000
     22117      7346  TIP3      OH2            29.6718077202       27.6366361834      -11.1060246909  SOLV      7335            0.0000000000
     22118      7346  TIP3      H1             30.0400208524       28.3408078080      -11.6592163054  SOLV      7335            0.0000000000
     22119      7346  TIP3      H2             29.2285782397       27.0646926225      -11.7534980964  SOLV      7335            0.0000000000
     22120      7347  TIP3      OH2            30.4050042672       24.5280227709       -8.9115671832  SOLV      7336            0.0000000000
     22121      7347  TIP3      H1             31.0607187374       24.9347663449       -8.3143503034  SOLV      7336            0.0000000000
     22122      7347  TIP3      H2             30.8844355048       24.4727257551       -9.7486814534  SOLV      7336            0.0000000000
     22123      7348  TIP3      OH2            29.9962764982       24.5052849057      -13.7981262558  SOLV      7337            0.0000000000
     22124      7348  TIP3      H1             30.7180952668       24.9549865417      -14.2560228004  SOLV      7337            0.0000000000
     22125      7348  TIP3      H2             29.3749435150       25.2399324482      -13.6053809529  SOLV      7337            0.0000000000
     22126      7349  TIP3      OH2            34.1987049862       26.8416971285       -2.8369106444  SOLV      7338            0.0000000000
     22127      7349  TIP3      H1             33.2736684319       26.9350259270       -3.1200857776  SOLV      7338            0.0000000000
     22128      7349  TIP3      H2             34.2259674444       25.9178441676       -2.5547845561  SOLV      7338            0.0000000000
     22129      7350  TIP3      OH2            34.2051804879       23.2984809076       -7.1054938808  SOLV      7339            0.0000000000
     22130      7350  TIP3      H1             34.0267624652       23.0025454121       -8.0267493236  SOLV      7339            0.0000000000
     22131      7350  TIP3      H2             34.1917610574       22.4534811334       -6.6234585236  SOLV      7339            0.0000000000
     22132      7351  TIP3      OH2            35.3013946104       27.7530062745       -0.0585636365  SOLV      7340            0.0000000000
     22133      7351  TIP3      H1             35.2174581208       26.8906033994       -0.5028721206  SOLV      7340            0.0000000000
     22134      7351  TIP3      H2             36.2235812447       27.7264185262        0.2435011990  SOLV      7340            0.0000000000
     22135      7352  TIP3      OH2            32.6436101095       28.2886778475       -0.6309912394  SOLV      7341            0.0000000000
     22136      7352  TIP3      H1             33.6219917581       28.2911283498       -0.5594591973  SOLV      7341            0.0000000000
     22137      7352  TIP3      H2             32.4586495260       27.4595358405       -0.1505502371  SOLV      7341            0.0000000000
     22138      7353  TIP3      OH2            32.2637444624       25.2987732937       -6.9488162296  SOLV      7342            0.0000000000
     22139      7353  TIP3      H1             32.8111902007       24.4860348998       -6.9903258746  SOLV      7342            0.0000000000
     22140      7353  TIP3      H2             32.9952230179       25.9534798773       -6.9043509860  SOLV      7342            0.0000000000
     22141      7354  TIP3      OH2            30.4789374841       27.8723107956       -6.5384805763  SOLV      7343            0.0000000000
     22142      7354  TIP3      H1             31.1418970583       27.5155657749       -7.1446425471  SOLV      7343            0.0000000000
     22143      7354  TIP3      H2             30.9536678002       28.5675271902       -6.0678829074  SOLV      7343            0.0000000000
     22144      7355  TIP3      OH2            30.2918074052       22.9032831810      -11.6039669578  SOLV      7344            0.0000000000
     22145      7355  TIP3      H1             29.4230057005       22.9267573571      -11.1700428905  SOLV      7344            0.0000000000
     22146      7355  TIP3      H2             30.1983739839       23.5916863581      -12.2919358961  SOLV      7344            0.0000000000
     22147      7356  TIP3      OH2            32.5838695573       23.8678079990       -3.2592797559  SOLV      7345            0.0000000000
     22148      7356  TIP3      H1             32.0344799644       23.8040151184       -2.4608161985  SOLV      7345            0.0000000000
     22149      7356  TIP3      H2             31.9275946828       24.1962517587       -3.9049454327  SOLV      7345            0.0000000000
     22150      7357  TIP3      OH2            33.3536065043       22.2895175613       -9.5074657953  SOLV      7346            0.0000000000
     22151      7357  TIP3      H1             32.4365073764       21.9543559082       -9.5463613034  SOLV      7346            0.0000000000
     22152      7357  TIP3      H2             33.8513141258       21.4564525564       -9.6464631572  SOLV      7346            0.0000000000
     22153      7358  TIP3      OH2            31.3771559642       20.9490058765      -13.2280246202  SOLV      7347            0.0000000000
     22154      7358  TIP3      H1             31.6028610243       21.5664241914      -13.9485182317  SOLV      7347            0.0000000000
     22155      7358  TIP3      H2             31.0157311244       21.5692769569      -12.5546415468  SOLV      7347            0.0000000000
     22156      7359  TIP3      OH2            32.4588061848       22.4761381229      -15.4619673855  SOLV      7348            0.0000000000
     22157      7359  TIP3      H1             32.8194520309       21.7195525992      -15.9549783465  SOLV      7348            0.0000000000
     22158      7359  TIP3      H2             33.1700898190       23.1256429678      -15.5784939293  SOLV      7348            0.0000000000
     22159      7360  TIP3      OH2            35.4775137437       24.9177115394       -0.7952462949  SOLV      7349            0.0000000000
     22160      7360  TIP3      H1             35.1137234210       24.2444724520       -0.1947595739  SOLV      7349            0.0000000000
     22161      7360  TIP3      H2             36.4226431205       24.9037501159       -0.5354495636  SOLV      7349            0.0000000000
     22162      7361  TIP3      OH2            38.0541932717       24.7731853560        0.2453237587  SOLV      7350            0.0000000000
     22163      7361  TIP3      H1             38.7795109383       24.2069212721       -0.0534109860  SOLV      7350            0.0000000000
     22164      7361  TIP3      H2             37.8126519436       24.3371133285        1.0924920912  SOLV      7350            0.0000000000
     22165      7362  TIP3      OH2           -29.8502101508       30.5109823717       -0.3551353451  SOLV      7351            0.0000000000
     22166      7362  TIP3      H1            -30.7775182348       30.3893947617       -0.1056751383  SOLV      7351            0.0000000000
     22167      7362  TIP3      H2            -29.9103285549       31.2092467551       -1.0199084155  SOLV      7351            0.0000000000
     22168      7363  TIP3      OH2           -24.2941859968       34.7232205645       14.0242963680  SOLV      7352            0.0000000000
     22169      7363  TIP3      H1            -23.7622837135       34.0223773019       13.5822677456  SOLV      7352            0.0000000000
     22170      7363  TIP3      H2            -23.8393876729       35.5254839690       13.7471973429  SOLV      7352            0.0000000000
     22171      7364  TIP3      OH2           -26.4865947062       33.4769349674       10.7983364893  SOLV      7353            0.0000000000
     22172      7364  TIP3      H1            -27.3014158086       33.0832257531       10.4130851619  SOLV      7353            0.0000000000
     22173      7364  TIP3      H2            -25.9103658732       32.6792368347       10.7841260061  SOLV      7353            0.0000000000
     22174      7365  TIP3      OH2           -29.2931594357       31.7739933233        6.0103405194  SOLV      7354            0.0000000000
     22175      7365  TIP3      H1            -28.7700248660       32.3253524103        5.3876562206  SOLV      7354            0.0000000000
     22176      7365  TIP3      H2            -30.1916546112       32.0365881218        5.7849297956  SOLV      7354            0.0000000000
     22177      7366  TIP3      OH2           -28.2008059976       33.0294553997        3.8110945511  SOLV      7355            0.0000000000
     22178      7366  TIP3      H1            -27.6038053347       32.3991207048        3.3543133885  SOLV      7355            0.0000000000
     22179      7366  TIP3      H2            -27.8474363131       33.8739437956        3.5176463972  SOLV      7355            0.0000000000
     22180      7367  TIP3      OH2           -18.1035618108       33.5626615336        3.6136451925  SOLV      7356            0.0000000000
     22181      7367  TIP3      H1            -18.3166960747       32.6162902673        3.7603543304  SOLV      7356            0.0000000000
     22182      7367  TIP3      H2            -18.8786504754       33.9769823296        4.0506886536  SOLV      7356            0.0000000000
     22183      7368  TIP3      OH2           -11.7978548978       33.1472819398       -5.4686511681  SOLV      7357            0.0000000000
     22184      7368  TIP3      H1            -12.5286204869       33.3304018169       -4.8355519876  SOLV      7357            0.0000000000
     22185      7368  TIP3      H2            -12.0682388097       33.6852702844       -6.2216233996  SOLV      7357            0.0000000000
     22186      7369  TIP3      OH2           -20.3675461090       34.4254240892        4.9343680589  SOLV      7358            0.0000000000
     22187      7369  TIP3      H1            -21.2397558403       34.0323845386        4.6812441022  SOLV      7358            0.0000000000
     22188      7369  TIP3      H2            -20.5577364351       35.3616060541        4.7973973532  SOLV      7358            0.0000000000
     22189      7370  TIP3      OH2           -15.2143815276       35.5584017146        6.7251510865  SOLV      7359            0.0000000000
     22190      7370  TIP3      H1            -14.4773158625       35.3421827636        7.3304414673  SOLV      7359            0.0000000000
     22191      7370  TIP3      H2            -15.9989550959       35.4923896842        7.2932171153  SOLV      7359            0.0000000000
     22192      7371  TIP3      OH2           -22.8389489166       33.4012374789        4.4262376588  SOLV      7360            0.0000000000
     22193      7371  TIP3      H1            -23.4313787855       33.2733550974        3.6608634116  SOLV      7360            0.0000000000
     22194      7371  TIP3      H2            -23.1753960621       32.7360266405        5.0538832717  SOLV      7360            0.0000000000
     22195      7372  TIP3      OH2           -17.9941193733       35.1361399304        7.3939176450  SOLV      7361            0.0000000000
     22196      7372  TIP3      H1            -18.1581020332       35.4899195300        6.5018219908  SOLV      7361            0.0000000000
     22197      7372  TIP3      H2            -18.5846746707       34.3489601832        7.3915299995  SOLV      7361            0.0000000000
     22198      7373  TIP3      OH2           -16.9807828024       34.8195933322       10.0331273910  SOLV      7362            0.0000000000
     22199      7373  TIP3      H1            -16.3532610557       34.0754244724        9.9106152855  SOLV      7362            0.0000000000
     22200      7373  TIP3      H2            -17.4081643049       34.8617332336        9.1560902595  SOLV      7362            0.0000000000
     22201      7374  TIP3      OH2           -15.8078414936       36.7754633616       11.5342911332  SOLV      7363            0.0000000000
     22202      7374  TIP3      H1            -16.1304647297       36.0331494012       10.9739809767  SOLV      7363            0.0000000000
     22203      7374  TIP3      H2            -16.6485958020       37.1130187453       11.9174001822  SOLV      7363            0.0000000000
     22204      7375  TIP3      OH2            -6.5316918599       37.4476596924        8.4918623926  SOLV      7364            0.0000000000
     22205      7375  TIP3      H1             -5.9408877567       36.6722282660        8.4254623464  SOLV      7364            0.0000000000
     22206      7375  TIP3      H2             -5.8895768713       38.1580424595        8.6091033126  SOLV      7364            0.0000000000
     22207      7376  TIP3      OH2           -24.6759887905       33.9418816499        8.6780729031  SOLV      7365            0.0000000000
     22208      7376  TIP3      H1            -25.2296776554       34.0323919931        9.4753927835  SOLV      7365            0.0000000000
     22209      7376  TIP3      H2            -25.3832943647       33.9796648252        7.9952976788  SOLV      7365            0.0000000000
     22210      7377  TIP3      OH2            -8.5326880873       35.8518791369        5.5544623358  SOLV      7366            0.0000000000
     22211      7377  TIP3      H1             -9.3970002322       35.4501323085        5.3213004787  SOLV      7366            0.0000000000
     22212      7377  TIP3      H2             -7.9809608893       35.0408827258        5.6156209430  SOLV      7366            0.0000000000
     22213      7378  TIP3      OH2           -16.5642342681       35.5954619995        2.0721906949  SOLV      7367            0.0000000000
     22214      7378  TIP3      H1            -16.8642511898       34.8324318098        2.5992757624  SOLV      7367            0.0000000000
     22215      7378  TIP3      H2            -15.7691395135       35.2506213261        1.6355138646  SOLV      7367            0.0000000000
     22216      7379  TIP3      OH2           -11.2863142159       34.4234487114        0.9204081964  SOLV      7368            0.0000000000
     22217      7379  TIP3      H1            -10.9545987177       34.9772837096        0.1810186058  SOLV      7368            0.0000000000
     22218      7379  TIP3      H2            -12.2552325019       34.5059266831        0.8166582569  SOLV      7368            0.0000000000
     22219      7380  TIP3      OH2           -10.2467707057       35.6233477504       -1.3299627064  SOLV      7369            0.0000000000
     22220      7380  TIP3      H1             -9.6718297536       34.9711294990       -1.7834952100  SOLV      7369            0.0000000000
     22221      7380  TIP3      H2             -9.9432173477       36.4493167743       -1.7175120686  SOLV      7369            0.0000000000
     22222      7381  TIP3      OH2           -24.2048904250       32.8257523990        2.0289085428  SOLV      7370            0.0000000000
     22223      7381  TIP3      H1            -25.0793781202       32.3936360151        2.1261874759  SOLV      7370            0.0000000000
     22224      7381  TIP3      H2            -23.6474565248       32.0234765282        1.9304210902  SOLV      7370            0.0000000000
     22225      7382  TIP3      OH2           -26.2521941456       31.0972090365       -1.4348916655  SOLV      7371            0.0000000000
     22226      7382  TIP3      H1            -25.6341477784       31.4703050107       -2.0758823158  SOLV      7371            0.0000000000
     22227      7382  TIP3      H2            -26.6110177539       31.9286701460       -1.0621705215  SOLV      7371            0.0000000000
     22228      7383  TIP3      OH2           -19.6310729617       32.9009530053        0.7788137587  SOLV      7372            0.0000000000
     22229      7383  TIP3      H1            -19.5681553518       33.8057920795        0.4300577501  SOLV      7372            0.0000000000
     22230      7383  TIP3      H2            -19.4523346886       33.0467233746        1.7142558411  SOLV      7372            0.0000000000
     22231      7384  TIP3      OH2           -14.0700926116       34.3736041380        0.6226441512  SOLV      7373            0.0000000000
     22232      7384  TIP3      H1            -14.4379101608       33.8901870859       -0.1293221675  SOLV      7373            0.0000000000
     22233      7384  TIP3      H2            -14.1809942783       33.6881805565        1.3257489033  SOLV      7373            0.0000000000
     22234      7385  TIP3      OH2           -13.8076652582       33.7324913184       -3.6921745705  SOLV      7374            0.0000000000
     22235      7385  TIP3      H1            -14.7150495185       33.8209857393       -4.0074547674  SOLV      7374            0.0000000000
     22236      7385  TIP3      H2            -13.8907088289       32.9148646998       -3.1518792620  SOLV      7374            0.0000000000
     22237      7386  TIP3      OH2           -21.8912635507       34.5951865775       10.8045462443  SOLV      7375            0.0000000000
     22238      7386  TIP3      H1            -22.2644779848       33.9349359911       11.4323591192  SOLV      7375            0.0000000000
     22239      7386  TIP3      H2            -20.9680411348       34.6561304669       11.1501315339  SOLV      7375            0.0000000000
     22240      7387  TIP3      OH2           -19.5329823927       35.2240282089       11.9188518157  SOLV      7376            0.0000000000
     22241      7387  TIP3      H1            -18.6272235719       35.0632806742       11.6050822372  SOLV      7376            0.0000000000
     22242      7387  TIP3      H2            -19.5436867065       34.7300722986       12.7644365830  SOLV      7376            0.0000000000
     22243      7388  TIP3      OH2           -11.3817480102       36.1187646416        9.9347761320  SOLV      7377            0.0000000000
     22244      7388  TIP3      H1            -11.1640501620       35.9378849222       10.8706158761  SOLV      7377            0.0000000000
     22245      7388  TIP3      H2            -10.4880591416       36.1785091464        9.5374678058  SOLV      7377            0.0000000000
     22246      7389  TIP3      OH2            -0.1867289714       36.0858679930       -1.5609207720  SOLV      7378            0.0000000000
     22247      7389  TIP3      H1             -0.3614186177       35.1419413446       -1.3683018471  SOLV      7378            0.0000000000
     22248      7389  TIP3      H2             -0.9294081630       36.5017198161       -1.0729393360  SOLV      7378            0.0000000000
     22249      7390  TIP3      OH2             6.1513040594       35.7445164830      -10.6074038577  SOLV      7379            0.0000000000
     22250      7390  TIP3      H1              5.4316566715       35.9491793864       -9.9698977530  SOLV      7379            0.0000000000
     22251      7390  TIP3      H2              5.9131048835       36.3086733538      -11.3509275299  SOLV      7379            0.0000000000
     22252      7391  TIP3      OH2            -2.4214099334       36.9824897999       -0.2101228027  SOLV      7380            0.0000000000
     22253      7391  TIP3      H1             -3.3167470093       36.6320474759       -0.4390796130  SOLV      7380            0.0000000000
     22254      7391  TIP3      H2             -2.5288971518       37.9111146141       -0.4537261692  SOLV      7380            0.0000000000
     22255      7392  TIP3      OH2             2.7261838551       38.0856013212        1.5906765799  SOLV      7381            0.0000000000
     22256      7392  TIP3      H1              3.4916979770       37.9580826891        2.1836072730  SOLV      7381            0.0000000000
     22257      7392  TIP3      H2              1.9725898607       38.1036303573        2.2002692369  SOLV      7381            0.0000000000
     22258      7393  TIP3      OH2            -4.9280276399       35.9852106365       -0.6659591846  SOLV      7382            0.0000000000
     22259      7393  TIP3      H1             -5.4831374967       35.8459063150       -1.4575829973  SOLV      7382            0.0000000000
     22260      7393  TIP3      H2             -5.2357388236       35.2793898298       -0.0709140996  SOLV      7382            0.0000000000
     22261      7394  TIP3      OH2            -0.0852202285       37.7586436676        2.2632231298  SOLV      7383            0.0000000000
     22262      7394  TIP3      H1             -0.1793366487       38.1481973620        1.3707601738  SOLV      7383            0.0000000000
     22263      7394  TIP3      H2             -0.6439480184       36.9550022942        2.1888150420  SOLV      7383            0.0000000000
     22264      7395  TIP3      OH2             0.9642343845       37.4281443633        4.8424043669  SOLV      7384            0.0000000000
     22265      7395  TIP3      H1              1.5618196563       36.6631582019        4.7091461778  SOLV      7384            0.0000000000
     22266      7395  TIP3      H2              0.5123635698       37.4755261649        3.9781044873  SOLV      7384            0.0000000000
     22267      7396  TIP3      OH2             2.1796010167       39.3435997363        6.3657412050  SOLV      7385            0.0000000000
     22268      7396  TIP3      H1              1.8138739428       38.6162461673        5.8163653742  SOLV      7385            0.0000000000
     22269      7396  TIP3      H2              1.3637462430       39.6895506896        6.7958016464  SOLV      7385            0.0000000000
     22270      7397  TIP3      OH2            11.4921548337       40.0210464111        3.4269574479  SOLV      7386            0.0000000000
     22271      7397  TIP3      H1             12.0266355551       39.2219851642        3.2237278127  SOLV      7386            0.0000000000
     22272      7397  TIP3      H2             12.1899970658       40.6633575882        3.6109566678  SOLV      7386            0.0000000000
     22273      7398  TIP3      OH2            -6.6920623890       36.7862398354        3.7914316833  SOLV      7387            0.0000000000
     22274      7398  TIP3      H1             -7.3875659551       36.3684832845        4.3654871375  SOLV      7387            0.0000000000
     22275      7398  TIP3      H2             -7.3111280545       36.9266578712        2.9761093001  SOLV      7387            0.0000000000
     22276      7399  TIP3      OH2             9.4050665297       38.5141957342        0.5402799664  SOLV      7388            0.0000000000
     22277      7399  TIP3      H1              8.5619226443       38.1361598749        0.2261856568  SOLV      7388            0.0000000000
     22278      7399  TIP3      H2              9.9781741355       37.7162354210        0.4921629681  SOLV      7388            0.0000000000
     22279      7400  TIP3      OH2             1.3827576917       38.1368503593       -3.1364611889  SOLV      7389            0.0000000000
     22280      7400  TIP3      H1              1.1382820260       37.3625883853       -2.6018597646  SOLV      7389            0.0000000000
     22281      7400  TIP3      H2              2.2378381980       37.8676767525       -3.5171721338  SOLV      7389            0.0000000000
     22282      7401  TIP3      OH2             6.6472349484       36.9021233708       -4.2375248849  SOLV      7390            0.0000000000
     22283      7401  TIP3      H1              7.0317262481       37.5142638499       -4.8996310898  SOLV      7390            0.0000000000
     22284      7401  TIP3      H2              5.6958247963       37.1040930011       -4.2970782278  SOLV      7390            0.0000000000
     22285      7402  TIP3      OH2             7.6172230786       38.1673879261       -6.5429801000  SOLV      7391            0.0000000000
     22286      7402  TIP3      H1              8.2049928688       37.5113468541       -6.9725729624  SOLV      7391            0.0000000000
     22287      7402  TIP3      H2              8.1123940725       38.9797343100       -6.6838549439  SOLV      7391            0.0000000000
     22288      7403  TIP3      OH2            -6.2233712037       35.3509561581       -3.0742541258  SOLV      7392            0.0000000000
     22289      7403  TIP3      H1             -7.0990860778       34.9184549402       -2.9885376217  SOLV      7392            0.0000000000
     22290      7403  TIP3      H2             -5.6589428644       34.5587439899       -3.1910952978  SOLV      7392            0.0000000000
     22291      7404  TIP3      OH2            -8.2634185606       33.6670491306       -6.5690125148  SOLV      7393            0.0000000000
     22292      7404  TIP3      H1             -7.7086274570       34.1358082070       -7.2043348498  SOLV      7393            0.0000000000
     22293      7404  TIP3      H2             -8.6769658378       34.4384635321       -6.1354085565  SOLV      7393            0.0000000000
     22294      7405  TIP3      OH2            -1.7294482336       35.3700871140       -4.1645754670  SOLV      7394            0.0000000000
     22295      7405  TIP3      H1             -1.6530018246       36.1915034798       -4.6759196197  SOLV      7394            0.0000000000
     22296      7405  TIP3      H2             -1.3371876847       35.6453055571       -3.3231874538  SOLV      7394            0.0000000000
     22297      7406  TIP3      OH2             3.8205643589       36.9726804675       -4.4487774901  SOLV      7395            0.0000000000
     22298      7406  TIP3      H1              3.6224346015       36.4551995088       -5.2408439537  SOLV      7395            0.0000000000
     22299      7406  TIP3      H2              3.7172085833       36.2695309141       -3.7631608488  SOLV      7395            0.0000000000
     22300      7407  TIP3      OH2             4.1263575449       36.3188069431       -8.8437666682  SOLV      7396            0.0000000000
     22301      7407  TIP3      H1              3.2514517388       36.3568347384       -9.2477512172  SOLV      7396            0.0000000000
     22302      7407  TIP3      H2              4.0438144526       35.5068977081       -8.2973351792  SOLV      7396            0.0000000000
     22303      7408  TIP3      OH2            -4.4703853587       37.9609139355        5.9236441140  SOLV      7397            0.0000000000
     22304      7408  TIP3      H1             -4.5048821204       37.1578141273        6.4978671310  SOLV      7397            0.0000000000
     22305      7408  TIP3      H2             -3.5034829662       38.1342884877        6.0330202358  SOLV      7397            0.0000000000
     22306      7409  TIP3      OH2            -1.8020825024       37.9437601069        6.7364701473  SOLV      7398            0.0000000000
     22307      7409  TIP3      H1             -0.9127351577       37.6835957566        6.4421524992  SOLV      7398            0.0000000000
     22308      7409  TIP3      H2             -1.8455139602       37.4799423490        7.5975100145  SOLV      7398            0.0000000000
     22309      7410  TIP3      OH2             6.6161760228       38.6513664046        4.7893839607  SOLV      7399            0.0000000000
     22310      7410  TIP3      H1              6.8534931386       38.5114501989        5.7265342178  SOLV      7399            0.0000000000
     22311      7410  TIP3      H2              7.4979324092       38.7764202031        4.3797099357  SOLV      7399            0.0000000000
     22312      7411  TIP3      OH2            17.7912164498       38.6762259810       -6.6660993798  SOLV      7400            0.0000000000
     22313      7411  TIP3      H1             17.6185381369       37.7277124382       -6.5093236177  SOLV      7400            0.0000000000
     22314      7411  TIP3      H2             17.0280698122       39.0770549898       -6.1964027667  SOLV      7400            0.0000000000
     22315      7412  TIP3      OH2            15.5439889854       39.5453576043       -5.3217547362  SOLV      7401            0.0000000000
     22316      7412  TIP3      H1             14.6527554199       39.2001572555       -5.5749949193  SOLV      7401            0.0000000000
     22317      7412  TIP3      H2             15.4174992715       40.4911684703       -5.4718143642  SOLV      7401            0.0000000000
     22318      7413  TIP3      OH2            20.6271332110       40.7940034627       -3.4313373320  SOLV      7402            0.0000000000
     22319      7413  TIP3      H1             21.0898348713       40.5607204690       -2.6219945175  SOLV      7402            0.0000000000
     22320      7413  TIP3      H2             19.6887818189       40.7051325120       -3.1680709739  SOLV      7402            0.0000000000
     22321      7414  TIP3      OH2            13.0595677020       38.5227927125       -5.8292053300  SOLV      7403            0.0000000000
     22322      7414  TIP3      H1             12.4725853293       38.3775662742       -6.5940199044  SOLV      7403            0.0000000000
     22323      7414  TIP3      H2             12.7324741678       37.8626353157       -5.1916317366  SOLV      7403            0.0000000000
     22324      7415  TIP3      OH2            17.9554103504       40.3035230073       -2.9145483505  SOLV      7404            0.0000000000
     22325      7415  TIP3      H1             17.7172132222       40.7656288607       -3.7477609923  SOLV      7404            0.0000000000
     22326      7415  TIP3      H2             17.3517475902       39.5295619347       -2.9395110407  SOLV      7404            0.0000000000
     22327      7416  TIP3      OH2            18.9345897403       39.8869557052       -0.1953540448  SOLV      7405            0.0000000000
     22328      7416  TIP3      H1             19.6179315063       39.2151808533       -0.3806403194  SOLV      7405            0.0000000000
     22329      7416  TIP3      H2             18.5007756646       39.9796181095       -1.0620929748  SOLV      7405            0.0000000000
     22330      7417  TIP3      OH2            20.1572381694       41.9962327057        1.1461966734  SOLV      7406            0.0000000000
     22331      7417  TIP3      H1             19.8295995567       41.1602318314        0.7616685195  SOLV      7406            0.0000000000
     22332      7417  TIP3      H2             19.4638318874       42.1896636386        1.8072872032  SOLV      7406            0.0000000000
     22333      7418  TIP3      OH2            11.2440706373       39.0427169191       -1.5855343199  SOLV      7407            0.0000000000
     22334      7418  TIP3      H1             10.7342908102       39.1071496848       -0.7584935636  SOLV      7407            0.0000000000
     22335      7418  TIP3      H2             10.5073054100       39.0955038333       -2.2336184228  SOLV      7407            0.0000000000
     22336      7419  TIP3      OH2           -37.7437173089      -16.2904265068       20.1607712474  SOLV      7408            0.0000000000
     22337      7419  TIP3      H1            -37.9859586996      -17.0300610884       20.7479910573  SOLV      7408            0.0000000000
     22338      7419  TIP3      H2            -36.8146593538      -16.4792988249       19.9643701057  SOLV      7408            0.0000000000
     22339      7420  TIP3      OH2            11.7263546895       37.9031624830       -8.2392503249  SOLV      7409            0.0000000000
     22340      7420  TIP3      H1             10.8548591448       37.4662875140       -8.1355893662  SOLV      7409            0.0000000000
     22341      7420  TIP3      H2             12.2960262365       37.1147759815       -8.3582561660  SOLV      7409            0.0000000000
     22342      7421  TIP3      OH2             9.4354960099       36.3112273928      -11.8208564587  SOLV      7410            0.0000000000
     22343      7421  TIP3      H1             10.0967146851       36.7265547660      -12.3877513186  SOLV      7410            0.0000000000
     22344      7421  TIP3      H2              9.1082136646       37.1066447400      -11.3589087832  SOLV      7410            0.0000000000
     22345      7422  TIP3      OH2            16.3131725931       37.9277105356       -9.4395208806  SOLV      7411            0.0000000000
     22346      7422  TIP3      H1             16.3316739880       38.8511489629       -9.7552550638  SOLV      7411            0.0000000000
     22347      7422  TIP3      H2             16.5474314953       38.0624005161       -8.5113072470  SOLV      7411            0.0000000000
     22348      7423  TIP3      OH2            13.9963303013       39.6750888099        0.4928378617  SOLV      7412            0.0000000000
     22349      7423  TIP3      H1             13.6103262226       39.0719812254        1.1650244378  SOLV      7412            0.0000000000
     22350      7423  TIP3      H2             14.9186567089       39.7515087174        0.8404684500  SOLV      7412            0.0000000000
     22351      7424  TIP3      OH2            16.3189782524       40.3133926448        1.5998159359  SOLV      7413            0.0000000000
     22352      7424  TIP3      H1             17.2546124226       40.3973510638        1.3498087595  SOLV      7413            0.0000000000
     22353      7424  TIP3      H2             16.3849424027       39.9198559927        2.4895849096  SOLV      7413            0.0000000000
     22354      7425  TIP3      OH2           -12.8047410399      -23.9313114505       27.4369731024  SOLV      7414            0.0000000000
     22355      7425  TIP3      H1            -12.7383336984      -22.9755165041       27.2103306173  SOLV      7414            0.0000000000
     22356      7425  TIP3      H2            -11.8813244574      -24.2239741541       27.2700321504  SOLV      7414            0.0000000000
     22357      7426  TIP3      OH2           -17.6655158404      -21.7761414319       28.7171450894  SOLV      7415            0.0000000000
     22358      7426  TIP3      H1            -17.1250353347      -22.4391488308       28.2322472475  SOLV      7415            0.0000000000
     22359      7426  TIP3      H2            -17.2588763803      -21.8059263982       29.5938152933  SOLV      7415            0.0000000000
     22360      7427  TIP3      OH2           -15.3570590584      -29.2710644163       28.8031017967  SOLV      7416            0.0000000000
     22361      7427  TIP3      H1            -15.6252249516      -29.7997164191       28.0297468485  SOLV      7416            0.0000000000
     22362      7427  TIP3      H2            -14.4392213930      -29.0541125373       28.5565269957  SOLV      7416            0.0000000000
     22363      7428  TIP3      OH2           -13.4336914756      -23.2185194360       30.0569025834  SOLV      7417            0.0000000000
     22364      7428  TIP3      H1            -13.4696791809      -23.9767665259       30.6509460644  SOLV      7417            0.0000000000
     22365      7428  TIP3      H2            -13.2825643536      -23.6182383609       29.1807125942  SOLV      7417            0.0000000000
     22366      7429  TIP3      OH2           -15.8928400265      -25.9431723203       29.0246287394  SOLV      7418            0.0000000000
     22367      7429  TIP3      H1            -15.5370688970      -26.4269212792       29.7834911849  SOLV      7418            0.0000000000
     22368      7429  TIP3      H2            -16.7857555964      -26.3213876257       28.9613621477  SOLV      7418            0.0000000000
     22369      7430  TIP3      OH2           -12.5779587893      -21.2201028622       27.0753272091  SOLV      7419            0.0000000000
     22370      7430  TIP3      H1            -12.2252724918      -20.4811159001       26.5537001340  SOLV      7419            0.0000000000
     22371      7430  TIP3      H2            -13.3512958834      -20.7732957717       27.4762651020  SOLV      7419            0.0000000000
     22372      7431  TIP3      OH2           -20.5864317720      -24.0724714384       28.1620828513  SOLV      7420            0.0000000000
     22373      7431  TIP3      H1            -20.9691961178      -24.7033091682       28.7839396868  SOLV      7420            0.0000000000
     22374      7431  TIP3      H2            -19.8401382839      -24.5749177675       27.7869866601  SOLV      7420            0.0000000000
     22375      7432  TIP3      OH2           -16.2943832547      -23.6672132772       27.2964498729  SOLV      7421            0.0000000000
     22376      7432  TIP3      H1            -15.8041021527      -24.2481942358       27.9051576219  SOLV      7421            0.0000000000
     22377      7432  TIP3      H2            -15.7433152699      -23.6937782404       26.4870965453  SOLV      7421            0.0000000000
     22378      7433  TIP3      OH2           -18.8626296638      -26.7108138524       28.7400721357  SOLV      7422            0.0000000000
     22379      7433  TIP3      H1            -19.3874173242      -26.8323623108       29.5418646675  SOLV      7422            0.0000000000
     22380      7433  TIP3      H2            -18.8168437332      -27.6450817127       28.4345409539  SOLV      7422            0.0000000000
     22381      7434  TIP3      OH2           -12.9651178000      -28.6373888508       27.5910163696  SOLV      7423            0.0000000000
     22382      7434  TIP3      H1            -13.1924904566      -29.0536822054       26.7329139290  SOLV      7423            0.0000000000
     22383      7434  TIP3      H2            -13.2979243640      -27.7262798345       27.4080678595  SOLV      7423            0.0000000000
     22384      7435  TIP3      OH2           -22.9109343193      -21.1039859412       30.0806046834  SOLV      7424            0.0000000000
     22385      7435  TIP3      H1            -21.9882894798      -21.3109977708       29.8382483497  SOLV      7424            0.0000000000
     22386      7435  TIP3      H2            -23.1770462379      -20.6233943524       29.2776549403  SOLV      7424            0.0000000000
     22387      7436  TIP3      OH2           -10.7890043236      -29.0345679624       29.1216640643  SOLV      7425            0.0000000000
     22388      7436  TIP3      H1            -11.5135882383      -28.9036099903       28.4688751002  SOLV      7425            0.0000000000
     22389      7436  TIP3      H2            -11.2482789881      -28.7692271534       29.9362562775  SOLV      7425            0.0000000000
     22390      7437  TIP3      OH2           -11.8504225580      -32.6154039464       28.8952038823  SOLV      7426            0.0000000000
     22391      7437  TIP3      H1            -12.0778468810      -31.7065007735       28.6597652454  SOLV      7426            0.0000000000
     22392      7437  TIP3      H2            -12.6245391985      -33.0938583410       28.5605474442  SOLV      7426            0.0000000000
     22393      7438  TIP3      OH2           -20.3669759699      -21.5117172358       29.2182548709  SOLV      7427            0.0000000000
     22394      7438  TIP3      H1            -19.4118644060      -21.4114575121       29.0434709911  SOLV      7427            0.0000000000
     22395      7438  TIP3      H2            -20.5181022088      -22.3759881112       28.7848790477  SOLV      7427            0.0000000000
     22396      7439  TIP3      OH2           -12.6083251144      -20.4942773046       30.0836828333  SOLV      7428            0.0000000000
     22397      7439  TIP3      H1            -12.9954761083      -21.3584896393       30.3365582135  SOLV      7428            0.0000000000
     22398      7439  TIP3      H2            -13.2769558561      -20.1767347988       29.4451635384  SOLV      7428            0.0000000000
     22399      7440  TIP3      OH2             1.7949959130      -25.3227580143       29.9680606181  SOLV      7429            0.0000000000
     22400      7440  TIP3      H1              1.5167972763      -24.4061228034       29.7554378995  SOLV      7429            0.0000000000
     22401      7440  TIP3      H2              1.0241291062      -25.8152851343       29.6486166880  SOLV      7429            0.0000000000
     22402      7441  TIP3      OH2             4.2483562157      -22.2987163483       30.7027003951  SOLV      7430            0.0000000000
     22403      7441  TIP3      H1              4.2236631684      -22.9649650434       31.4082578891  SOLV      7430            0.0000000000
     22404      7441  TIP3      H2              4.5479841825      -21.5095513791       31.1937416345  SOLV      7430            0.0000000000
     22405      7442  TIP3      OH2             0.7412514782      -17.6776101691       30.8076131709  SOLV      7431            0.0000000000
     22406      7442  TIP3      H1              1.1720504589      -18.4246952802       30.3479712906  SOLV      7431            0.0000000000
     22407      7442  TIP3      H2              0.6895360509      -17.9974459806       31.7175206986  SOLV      7431            0.0000000000
     22408      7443  TIP3      OH2            10.1085380454      -29.5739326863       33.8483770493  SOLV      7432            0.0000000000
     22409      7443  TIP3      H1              9.6311078331      -29.0737499398       34.5226668548  SOLV      7432            0.0000000000
     22410      7443  TIP3      H2             10.1870791904      -28.9020282639       33.1488710112  SOLV      7432            0.0000000000
     22411      7444  TIP3      OH2             4.2363368331      -30.4110915593       30.5574353443  SOLV      7433            0.0000000000
     22412      7444  TIP3      H1              4.8901533592      -30.9273173701       31.0554287115  SOLV      7433            0.0000000000
     22413      7444  TIP3      H2              4.5940157519      -30.4329450437       29.6570354251  SOLV      7433            0.0000000000
     22414      7445  TIP3      OH2             0.6935649641      -23.1152832981       28.6490662883  SOLV      7434            0.0000000000
     22415      7445  TIP3      H1              0.2626382535      -23.2353871201       27.7899520855  SOLV      7434            0.0000000000
     22416      7445  TIP3      H2              0.2409281748      -22.3034814216       28.9666385295  SOLV      7434            0.0000000000
     22417      7446  TIP3      OH2            -9.3520326021      -25.2618610748       29.8951411830  SOLV      7435            0.0000000000
     22418      7446  TIP3      H1             -9.9442553449      -24.8586015106       29.2414321573  SOLV      7435            0.0000000000
     22419      7446  TIP3      H2             -9.6505167219      -24.8544421911       30.7366401805  SOLV      7435            0.0000000000
     22420      7447  TIP3      OH2             4.8836065434      -19.8938496059       32.2206140966  SOLV      7436            0.0000000000
     22421      7447  TIP3      H1              4.0505041800      -20.0047751183       32.7351598765  SOLV      7436            0.0000000000
     22422      7447  TIP3      H2              4.7744515089      -18.9834628811       31.8790189606  SOLV      7436            0.0000000000
     22423      7448  TIP3      OH2             1.9092339521      -19.4632470753       28.9882797191  SOLV      7437            0.0000000000
     22424      7448  TIP3      H1              2.4377504409      -20.2781482055       28.8289536455  SOLV      7437            0.0000000000
     22425      7448  TIP3      H2              2.5408203554      -18.7977066794       28.6287071210  SOLV      7437            0.0000000000
     22426      7449  TIP3      OH2             3.3888858584      -21.6238922729       28.1709631041  SOLV      7438            0.0000000000
     22427      7449  TIP3      H1              2.8551294671      -22.3884538920       27.9242264626  SOLV      7438            0.0000000000
     22428      7449  TIP3      H2              3.7851554599      -21.9259226362       29.0201659933  SOLV      7438            0.0000000000
     22429      7450  TIP3      OH2             7.5109357205      -20.8051758637       35.7330176978  SOLV      7439            0.0000000000
     22430      7450  TIP3      H1              7.2212140994      -21.5915917824       35.2172300197  SOLV      7439            0.0000000000
     22431      7450  TIP3      H2              7.2602884643      -20.0862656889       35.1153869656  SOLV      7439            0.0000000000
     22432      7451  TIP3      OH2             0.0889569726      -26.8123487092       28.3314976136  SOLV      7440            0.0000000000
     22433      7451  TIP3      H1             -0.7024490776      -26.2724271072       28.1225212887  SOLV      7440            0.0000000000
     22434      7451  TIP3      H2              0.5509745191      -26.8211297406       27.4730512905  SOLV      7440            0.0000000000
     22435      7452  TIP3      OH2            -0.3425312148      -28.9687245074       25.4972252717  SOLV      7441            0.0000000000
     22436      7452  TIP3      H1              0.3228988990      -28.4251565313       25.9554207112  SOLV      7441            0.0000000000
     22437      7452  TIP3      H2              0.2454415584      -29.5321391089       24.9491978028  SOLV      7441            0.0000000000
     22438      7453  TIP3      OH2             9.2176302941      -24.0694851189       34.0828662363  SOLV      7442            0.0000000000
     22439      7453  TIP3      H1              8.2926952431      -23.7315667988       34.0852770256  SOLV      7442            0.0000000000
     22440      7453  TIP3      H2              9.4672986161      -23.9246232213       33.1437444629  SOLV      7442            0.0000000000
     22441      7454  TIP3      OH2             3.5892592009      -25.9977380087       28.0251605676  SOLV      7443            0.0000000000
     22442      7454  TIP3      H1              3.0519665351      -25.7492592859       28.8123381884  SOLV      7443            0.0000000000
     22443      7454  TIP3      H2              4.4450025451      -26.2119811584       28.4571735265  SOLV      7443            0.0000000000
     22444      7455  TIP3      OH2            -3.3816599487      -26.4113483221       31.7176820351  SOLV      7444            0.0000000000
     22445      7455  TIP3      H1             -4.1651319468      -26.7769946239       31.2496245373  SOLV      7444            0.0000000000
     22446      7455  TIP3      H2             -3.1150375621      -27.1429304389       32.2742808116  SOLV      7444            0.0000000000
     22447      7456  TIP3      OH2            -2.3691400418      -21.5556296604       33.1308803916  SOLV      7445            0.0000000000
     22448      7456  TIP3      H1             -2.6919215813      -22.1291797707       32.4221692768  SOLV      7445            0.0000000000
     22449      7456  TIP3      H2             -2.0083415391      -22.1725475236       33.7824503334  SOLV      7445            0.0000000000
     22450      7457  TIP3      OH2             2.5930396263      -19.9807608020       33.6887959364  SOLV      7446            0.0000000000
     22451      7457  TIP3      H1              2.4335349951      -19.0116100314       33.7564127118  SOLV      7446            0.0000000000
     22452      7457  TIP3      H2              2.3236003216      -20.2701569984       34.5827480529  SOLV      7446            0.0000000000
     22453      7458  TIP3      OH2             1.9735014406      -27.4451347470       26.3223913045  SOLV      7447            0.0000000000
     22454      7458  TIP3      H1              2.5543733809      -26.8164442850       26.8080238808  SOLV      7447            0.0000000000
     22455      7458  TIP3      H2              2.2519569950      -27.2640276165       25.3896736771  SOLV      7447            0.0000000000
     22456      7459  TIP3      OH2            -0.5640355426      -20.6716544503       29.0612611476  SOLV      7448            0.0000000000
     22457      7459  TIP3      H1              0.2674028470      -20.1590326262       29.1326925606  SOLV      7448            0.0000000000
     22458      7459  TIP3      H2             -1.1538129067      -20.0371150963       28.6336884691  SOLV      7448            0.0000000000
     22459      7460  TIP3      OH2            -5.5484457865      -27.5962980733       30.4614025450  SOLV      7449            0.0000000000
     22460      7460  TIP3      H1             -6.1337737680      -27.1004720495       29.8429305216  SOLV      7449            0.0000000000
     22461      7460  TIP3      H2             -5.7526143591      -28.5027934632       30.2142264071  SOLV      7449            0.0000000000
     22462      7461  TIP3      OH2             5.1380812733      -21.3695676973       22.2618574645  SOLV      7450            0.0000000000
     22463      7461  TIP3      H1              5.2121348156      -20.3984430547       22.1377924179  SOLV      7450            0.0000000000
     22464      7461  TIP3      H2              6.0727414502      -21.6443679067       22.1479828988  SOLV      7450            0.0000000000
     22465      7462  TIP3      OH2             9.5916726971      -17.0446851081       35.8298013989  SOLV      7451            0.0000000000
     22466      7462  TIP3      H1              9.5255858713      -17.9884801689       36.0676333777  SOLV      7451            0.0000000000
     22467      7462  TIP3      H2              8.9042806236      -16.6764086401       36.4054692151  SOLV      7451            0.0000000000
     22468      7463  TIP3      OH2            -1.7240464331      -18.1993117975       27.0981011548  SOLV      7452            0.0000000000
     22469      7463  TIP3      H1             -2.2150292594      -18.3355159963       26.2692443672  SOLV      7452            0.0000000000
     22470      7463  TIP3      H2             -2.0692011142      -17.3388658090       27.4060648851  SOLV      7452            0.0000000000
     22471      7464  TIP3      OH2            -7.2574231429      -19.6377577532       30.9952664039  SOLV      7453            0.0000000000
     22472      7464  TIP3      H1             -6.9724499645      -19.6978245803       31.9146947054  SOLV      7453            0.0000000000
     22473      7464  TIP3      H2             -7.8745556176      -20.3958355206       30.9244755731  SOLV      7453            0.0000000000
     22474      7465  TIP3      OH2             0.2379385744      -19.1485741326       23.4643107940  SOLV      7454            0.0000000000
     22475      7465  TIP3      H1              0.8326354495      -19.8489922330       23.1193085012  SOLV      7454            0.0000000000
     22476      7465  TIP3      H2              0.5812539972      -19.0317320781       24.3760862002  SOLV      7454            0.0000000000
     22477      7466  TIP3      OH2             0.7695394181      -18.6799506607       26.1534271492  SOLV      7455            0.0000000000
     22478      7466  TIP3      H1             -0.1182626418      -18.5720864368       26.5631953573  SOLV      7455            0.0000000000
     22479      7466  TIP3      H2              1.2815805199      -19.0103100134       26.9100685972  SOLV      7455            0.0000000000
     22480      7467  TIP3      OH2             2.8085317896      -27.0962321350       23.7779329606  SOLV      7456            0.0000000000
     22481      7467  TIP3      H1              2.3866395429      -27.2627797380       22.9127229831  SOLV      7456            0.0000000000
     22482      7467  TIP3      H2              3.5511093883      -26.5211017064       23.5196810042  SOLV      7456            0.0000000000
     22483      7468  TIP3      OH2             1.3544111887      -28.8929728123       29.6046618306  SOLV      7457            0.0000000000
     22484      7468  TIP3      H1              0.9317622241      -28.1224500412       29.1672105959  SOLV      7457            0.0000000000
     22485      7468  TIP3      H2              2.0161905382      -29.1710876628       28.9335375497  SOLV      7457            0.0000000000
     22486      7469  TIP3      OH2             2.9208229167      -28.4786637238       31.9835037471  SOLV      7458            0.0000000000
     22487      7469  TIP3      H1              2.3685381474      -28.1695777281       31.2580222706  SOLV      7458            0.0000000000
     22488      7469  TIP3      H2              3.4018639427      -29.2118117657       31.5268450631  SOLV      7458            0.0000000000
     22489      7470  TIP3      OH2            -3.7640351860      -33.2934135327       26.8195071586  SOLV      7459            0.0000000000
     22490      7470  TIP3      H1             -4.0673382826      -33.3320771454       27.7330280858  SOLV      7459            0.0000000000
     22491      7470  TIP3      H2             -4.4421315548      -32.7173160880       26.4055898682  SOLV      7459            0.0000000000
     22492      7471  TIP3      OH2            -8.7642916490      -33.3315552400       29.5922311560  SOLV      7460            0.0000000000
     22493      7471  TIP3      H1             -8.3273302855      -32.7472579396       28.9297293443  SOLV      7460            0.0000000000
     22494      7471  TIP3      H2             -9.6986866978      -33.1961667559       29.3327583558  SOLV      7460            0.0000000000
     22495      7472  TIP3      OH2            -2.8507719509      -30.6407267043       30.1763900791  SOLV      7461            0.0000000000
     22496      7472  TIP3      H1             -2.2542942017      -31.0769786007       29.5525316683  SOLV      7461            0.0000000000
     22497      7472  TIP3      H2             -3.6356384846      -30.5351921671       29.5922662538  SOLV      7461            0.0000000000
     22498      7473  TIP3      OH2            -4.6767081297      -30.4417656353       27.9362757876  SOLV      7462            0.0000000000
     22499      7473  TIP3      H1             -5.4290194930      -30.8120645599       27.4381544775  SOLV      7462            0.0000000000
     22500      7473  TIP3      H2             -4.1129354932      -30.1617750054       27.1833235365  SOLV      7462            0.0000000000
     22501      7474  TIP3      OH2             6.2978932019      -13.1955896967       37.0251328343  SOLV      7463            0.0000000000
     22502      7474  TIP3      H1              6.1273945928      -13.3745307375       36.0904681590  SOLV      7463            0.0000000000
     22503      7474  TIP3      H2              7.2204053563      -12.8831143475       37.0090148786  SOLV      7463            0.0000000000
     22504      7475  TIP3      OH2            -2.1886060640      -25.3352527935       27.7286760314  SOLV      7464            0.0000000000
     22505      7475  TIP3      H1             -2.9221891656      -25.9850497279       27.6667983071  SOLV      7464            0.0000000000
     22506      7475  TIP3      H2             -2.3708834673      -24.9227834273       28.6088957606  SOLV      7464            0.0000000000
     22507      7476  TIP3      OH2             6.7681388748      -22.8337229326       34.0659027760  SOLV      7465            0.0000000000
     22508      7476  TIP3      H1              6.9618334292      -22.2809923719       33.2838699999  SOLV      7465            0.0000000000
     22509      7476  TIP3      H2              5.9425501803      -23.2908647701       33.7908640349  SOLV      7465            0.0000000000
     22510      7477  TIP3      OH2             2.3160433057      -31.8836570011       26.0102811494  SOLV      7466            0.0000000000
     22511      7477  TIP3      H1              1.6171690064      -32.3651090557       26.4651880673  SOLV      7466            0.0000000000
     22512      7477  TIP3      H2              2.5742324242      -31.1982098888       26.6596251143  SOLV      7466            0.0000000000
     22513      7478  TIP3      OH2             3.0817912778      -29.7078164569       27.5586646207  SOLV      7467            0.0000000000
     22514      7478  TIP3      H1              4.0441706737      -29.6099935325       27.7106115417  SOLV      7467            0.0000000000
     22515      7478  TIP3      H2              2.8587969683      -28.9024932095       27.0506637865  SOLV      7467            0.0000000000
     22516      7479  TIP3      OH2            -0.7138686717      -23.7879298119       26.0537191908  SOLV      7468            0.0000000000
     22517      7479  TIP3      H1             -1.2253952952      -22.9426772311       26.0711432219  SOLV      7468            0.0000000000
     22518      7479  TIP3      H2             -1.2673206604      -24.3532131783       26.6342466641  SOLV      7468            0.0000000000
     22519      7480  TIP3      OH2             7.4100604795      -28.7685853616       25.8372617255  SOLV      7469            0.0000000000
     22520      7480  TIP3      H1              6.8808351208      -29.2488523090       25.1642214748  SOLV      7469            0.0000000000
     22521      7480  TIP3      H2              7.3207540823      -27.8583329383       25.4742829839  SOLV      7469            0.0000000000
     22522      7481  TIP3      OH2             4.5306506438      -20.5915037458       24.9508273016  SOLV      7470            0.0000000000
     22523      7481  TIP3      H1              4.2060403897      -21.2344647410       25.5977394439  SOLV      7470            0.0000000000
     22524      7481  TIP3      H2              4.6145267977      -21.1130331175       24.1349951519  SOLV      7470            0.0000000000
     22525      7482  TIP3      OH2             4.5959753974      -24.1822741949       33.0073162877  SOLV      7471            0.0000000000
     22526      7482  TIP3      H1              3.8087920087      -24.4137420087       33.5151812295  SOLV      7471            0.0000000000
     22527      7482  TIP3      H2              4.8326323592      -25.0452714862       32.6041573146  SOLV      7471            0.0000000000
     22528      7483  TIP3      OH2            -4.4254931297      -22.1574038172       30.8505042937  SOLV      7472            0.0000000000
     22529      7483  TIP3      H1             -4.1268403070      -21.3244592840       30.4434296597  SOLV      7472            0.0000000000
     22530      7483  TIP3      H2             -5.3637001006      -22.1158656822       30.6390017655  SOLV      7472            0.0000000000
     22531      7484  TIP3      OH2            -8.4452301546      -28.8009327081       27.7559095067  SOLV      7473            0.0000000000
     22532      7484  TIP3      H1             -8.0583226513      -27.9424165809       28.0254360180  SOLV      7473            0.0000000000
     22533      7484  TIP3      H2             -9.2793336526      -28.8141694073       28.2865588256  SOLV      7473            0.0000000000
     22534      7485  TIP3      OH2            -2.7967600332      -24.2873584631       30.1084129895  SOLV      7474            0.0000000000
     22535      7485  TIP3      H1             -3.3373555204      -23.5423492533       30.4382153029  SOLV      7474            0.0000000000
     22536      7485  TIP3      H2             -2.9132824885      -24.9658508856       30.8052395683  SOLV      7474            0.0000000000
     22537      7486  TIP3      OH2            -5.0527412242      -19.6350547167       29.3113894288  SOLV      7475            0.0000000000
     22538      7486  TIP3      H1             -5.8794738764      -19.4829162624       29.8114546063  SOLV      7475            0.0000000000
     22539      7486  TIP3      H2             -4.6727706471      -18.7259349550       29.3332871231  SOLV      7475            0.0000000000
     22540      7487  TIP3      OH2             2.0914065424      -23.3116974388       23.9365880951  SOLV      7476            0.0000000000
     22541      7487  TIP3      H1              2.6169243587      -23.5806686285       24.7271480495  SOLV      7476            0.0000000000
     22542      7487  TIP3      H2              1.2020624033      -23.5817475166       24.2114675780  SOLV      7476            0.0000000000
     22543      7488  TIP3      OH2             4.8734733495      -17.1732357885       35.3000694130  SOLV      7477            0.0000000000
     22544      7488  TIP3      H1              4.0892085736      -17.2090170783       35.8659320640  SOLV      7477            0.0000000000
     22545      7488  TIP3      H2              4.7235270091      -16.3389466152       34.8157554621  SOLV      7477            0.0000000000
     22546      7489  TIP3      OH2             5.4422770498      -18.6016315133       22.1143620883  SOLV      7478            0.0000000000
     22547      7489  TIP3      H1              5.7743927543      -17.8354933089       21.6177281720  SOLV      7478            0.0000000000
     22548      7489  TIP3      H2              4.6380096843      -18.1953341053       22.5008108564  SOLV      7478            0.0000000000
     22549      7490  TIP3      OH2             3.7072064025      -24.0768430071       26.0223187040  SOLV      7479            0.0000000000
     22550      7490  TIP3      H1              3.5964900840      -24.6672558449       26.7927500889  SOLV      7479            0.0000000000
     22551      7490  TIP3      H2              4.6849389087      -24.0677082844       25.9510459748  SOLV      7479            0.0000000000
     22552      7491  TIP3      OH2            -4.2888675709      -23.5350227397       23.9545775254  SOLV      7480            0.0000000000
     22553      7491  TIP3      H1             -4.1754736735      -24.4679942443       23.6966092900  SOLV      7480            0.0000000000
     22554      7491  TIP3      H2             -4.5094893958      -23.6203653410       24.9024834204  SOLV      7480            0.0000000000
     22555      7492  TIP3      OH2            -4.8535944178      -23.4721936299       26.6776989128  SOLV      7481            0.0000000000
     22556      7492  TIP3      H1             -4.0613903219      -23.6995278339       27.1822088274  SOLV      7481            0.0000000000
     22557      7492  TIP3      H2             -4.8419255747      -22.4878115879       26.7299452287  SOLV      7481            0.0000000000
     22558      7493  TIP3      OH2            -7.3042435994      -26.4888928993       28.6572620117  SOLV      7482            0.0000000000
     22559      7493  TIP3      H1             -8.0391766571      -26.0640749757       29.1616257891  SOLV      7482            0.0000000000
     22560      7493  TIP3      H2             -7.2293255362      -25.8468162126       27.9224066548  SOLV      7482            0.0000000000
     22561      7494  TIP3      OH2            -2.1776273520      -21.5257772989       26.1313310713  SOLV      7483            0.0000000000
     22562      7494  TIP3      H1             -3.0481187716      -21.2858488313       26.5047961906  SOLV      7483            0.0000000000
     22563      7494  TIP3      H2             -2.0139961991      -20.7434782347       25.5800954182  SOLV      7483            0.0000000000
     22564      7495  TIP3      OH2             0.0331124200      -31.0448653792       30.6066780418  SOLV      7484            0.0000000000
     22565      7495  TIP3      H1              0.6362617946      -30.4564256012       30.0948198346  SOLV      7484            0.0000000000
     22566      7495  TIP3      H2             -0.7787436978      -30.5214803320       30.5858581574  SOLV      7484            0.0000000000
     22567      7496  TIP3      OH2            -4.7073486650      -20.7658998136       26.8457252024  SOLV      7485            0.0000000000
     22568      7496  TIP3      H1             -5.0022131593      -20.0630943236       26.2218478845  SOLV      7485            0.0000000000
     22569      7496  TIP3      H2             -4.8584805051      -20.3223920121       27.7110850708  SOLV      7485            0.0000000000
     22570      7497  TIP3      OH2             5.1845952085      -26.7037856134       32.0026578616  SOLV      7486            0.0000000000
     22571      7497  TIP3      H1              4.4448730939      -27.3067214962       32.2082407133  SOLV      7486            0.0000000000
     22572      7497  TIP3      H2              5.9352908006      -27.1234907365       32.4903529418  SOLV      7486            0.0000000000
     22573      7498  TIP3      OH2            -7.5471837510      -24.5167137004       26.7051131445  SOLV      7487            0.0000000000
     22574      7498  TIP3      H1             -6.8498889664      -23.8389893279       26.7774741956  SOLV      7487            0.0000000000
     22575      7498  TIP3      H2             -7.1332820396      -25.0907285751       26.0236977323  SOLV      7487            0.0000000000
     22576      7499  TIP3      OH2            -8.0457875022      -31.4627197622       27.8187554653  SOLV      7488            0.0000000000
     22577      7499  TIP3      H1             -7.9857086746      -30.4900068225       27.9239739602  SOLV      7488            0.0000000000
     22578      7499  TIP3      H2             -8.7009469858      -31.5091770839       27.1026074353  SOLV      7488            0.0000000000
     22579      7500  TIP3      OH2             5.0023435536      -17.1613054624       31.5114137321  SOLV      7489            0.0000000000
     22580      7500  TIP3      H1              4.5746609471      -16.6898758798       30.7630680522  SOLV      7489            0.0000000000
     22581      7500  TIP3      H2              5.9464345835      -16.9833366721       31.3055199693  SOLV      7489            0.0000000000
     22582      7501  TIP3      OH2            -8.9596708282      -21.8196999253       30.7039045679  SOLV      7490            0.0000000000
     22583      7501  TIP3      H1             -9.8262315522      -21.4050426273       30.5590296021  SOLV      7490            0.0000000000
     22584      7501  TIP3      H2             -8.7627214153      -22.0216134654       29.7743065346  SOLV      7490            0.0000000000
     22585      7502  TIP3      OH2            -2.6692909293      -21.5198007322       23.0154208817  SOLV      7491            0.0000000000
     22586      7502  TIP3      H1             -3.2250863989      -22.2312288776       23.4105239520  SOLV      7491            0.0000000000
     22587      7502  TIP3      H2             -1.9092815886      -22.0389170031       22.7018209275  SOLV      7491            0.0000000000
     22588      7503  TIP3      OH2             1.6974476923      -21.1331078313       22.1974231697  SOLV      7492            0.0000000000
     22589      7503  TIP3      H1              2.0838970514      -21.7895715604       22.8097188932  SOLV      7492            0.0000000000
     22590      7503  TIP3      H2              2.2832556423      -21.1893286752       21.4195295878  SOLV      7492            0.0000000000
     22591      7504  TIP3      OH2            -6.1920392890      -26.3816991499       25.2959533026  SOLV      7493            0.0000000000
     22592      7504  TIP3      H1             -5.6134410489      -26.6621110462       26.0249024862  SOLV      7493            0.0000000000
     22593      7504  TIP3      H2             -5.5320261224      -26.3079131445       24.5702471286  SOLV      7493            0.0000000000
     22594      7505  TIP3      OH2            -0.9957678992      -24.3050536641       23.3716300898  SOLV      7494            0.0000000000
     22595      7505  TIP3      H1             -0.9990088138      -24.1915155984       24.3435277529  SOLV      7494            0.0000000000
     22596      7505  TIP3      H2             -0.9842225645      -25.2850936124       23.3054075817  SOLV      7494            0.0000000000
     22597      7506  TIP3      OH2            -4.1101634684      -27.3058829523       27.4757995371  SOLV      7495            0.0000000000
     22598      7506  TIP3      H1             -4.4057115410      -27.8418880842       28.2206333434  SOLV      7495            0.0000000000
     22599      7506  TIP3      H2             -3.7015078875      -27.9862295732       26.8982407743  SOLV      7495            0.0000000000
     22600      7507  TIP3      OH2            -3.1022483779      -29.3311489056       25.9147138788  SOLV      7496            0.0000000000
     22601      7507  TIP3      H1             -3.3579169621      -29.2678076163       24.9681619382  SOLV      7496            0.0000000000
     22602      7507  TIP3      H2             -2.1246498884      -29.3279241531       25.8316612521  SOLV      7496            0.0000000000
     22603      7508  TIP3      OH2             5.1256276106      -26.0675764952       22.5341294245  SOLV      7497            0.0000000000
     22604      7508  TIP3      H1              4.8669952816      -26.4683470295       21.6791127939  SOLV      7497            0.0000000000
     22605      7508  TIP3      H2              4.7838219254      -25.1538529725       22.3796575454  SOLV      7497            0.0000000000
     22606      7509  TIP3      OH2            -5.0115657880      -18.7489235417       24.9697206837  SOLV      7498            0.0000000000
     22607      7509  TIP3      H1             -4.0605244824      -18.8250039780       24.7666413810  SOLV      7498            0.0000000000
     22608      7509  TIP3      H2             -5.2974369159      -18.2057434353       24.2104079398  SOLV      7498            0.0000000000
     22609      7510  TIP3      OH2           -10.2729739711      -24.8942349054       27.0010035197  SOLV      7499            0.0000000000
     22610      7510  TIP3      H1             -9.3150946153      -24.6934880529       26.9322023109  SOLV      7499            0.0000000000
     22611      7510  TIP3      H2            -10.3124226674      -25.7962018316       26.6196372171  SOLV      7499            0.0000000000
     22612      7511  TIP3      OH2           -10.7425350072      -18.9641416193       31.2905150090  SOLV      7500            0.0000000000
     22613      7511  TIP3      H1            -11.3700212073      -19.2533992797       30.5890726959  SOLV      7500            0.0000000000
     22614      7511  TIP3      H2            -10.8938859056      -19.6902294169       31.9097623909  SOLV      7500            0.0000000000
     22615      7512  TIP3      OH2             7.5763283784      -16.3200203101       31.1133025058  SOLV      7501            0.0000000000
     22616      7512  TIP3      H1              7.7608988298      -16.0190405409       32.0249423552  SOLV      7501            0.0000000000
     22617      7512  TIP3      H2              8.2030039939      -15.7947450240       30.5960062159  SOLV      7501            0.0000000000
     22618      7513  TIP3      OH2             7.8091192411      -16.0903718729       33.8592376812  SOLV      7502            0.0000000000
     22619      7513  TIP3      H1              7.3464361131      -16.9554656706       33.8630542596  SOLV      7502            0.0000000000
     22620      7513  TIP3      H2              8.6188654138      -16.3395121316       34.3381622625  SOLV      7502            0.0000000000
     22621      7514  TIP3      OH2             6.4955481261      -24.2161086029       25.8461972369  SOLV      7503            0.0000000000
     22622      7514  TIP3      H1              7.1358569208      -23.5325962239       25.5630455382  SOLV      7503            0.0000000000
     22623      7514  TIP3      H2              6.9347739462      -24.5628798647       26.6561345516  SOLV      7503            0.0000000000
     22624      7515  TIP3      OH2             7.7329466075      -25.5345318873       27.9004358578  SOLV      7504            0.0000000000
     22625      7515  TIP3      H1              7.0818920175      -25.9142560074       28.5293082675  SOLV      7504            0.0000000000
     22626      7515  TIP3      H2              8.4168965938      -25.1580720006       28.4971128242  SOLV      7504            0.0000000000
     22627      7516  TIP3      OH2             8.3461399786      -21.4811145018       32.2163497690  SOLV      7505            0.0000000000
     22628      7516  TIP3      H1              8.8795446820      -22.1793076540       31.7811794853  SOLV      7505            0.0000000000
     22629      7516  TIP3      H2              8.2885469778      -20.8036911159       31.5170987502  SOLV      7505            0.0000000000
     22630      7517  TIP3      OH2             6.7189742338      -18.6926520556       34.0600857261  SOLV      7506            0.0000000000
     22631      7517  TIP3      H1              5.9911634521      -18.2307715290       34.5432227168  SOLV      7506            0.0000000000
     22632      7517  TIP3      H2              6.2123211030      -19.1356836827       33.3495867461  SOLV      7506            0.0000000000
     22633      7518  TIP3      OH2             7.0766216389      -26.4613833726       24.3658689764  SOLV      7507            0.0000000000
     22634      7518  TIP3      H1              6.3794278533      -26.3607823644       23.6776887930  SOLV      7507            0.0000000000
     22635      7518  TIP3      H2              6.8402932009      -25.6985622907       24.9389499287  SOLV      7507            0.0000000000
     22636      7519  TIP3      OH2             5.9092644430      -29.8215100685       23.7584685532  SOLV      7508            0.0000000000
     22637      7519  TIP3      H1              5.3884455193      -29.1049614765       23.3730547725  SOLV      7508            0.0000000000
     22638      7519  TIP3      H2              5.3577853319      -30.5848121453       23.5385504049  SOLV      7508            0.0000000000
     22639      7520  TIP3      OH2             5.8449272305      -26.9109267403       29.3614745149  SOLV      7509            0.0000000000
     22640      7520  TIP3      H1              5.8683022886      -27.8794038951       29.3322036332  SOLV      7509            0.0000000000
     22641      7520  TIP3      H2              5.6517500359      -26.7453898508       30.3142467361  SOLV      7509            0.0000000000
     22642      7521  TIP3      OH2             5.8495919104      -29.8199816575       28.2447238667  SOLV      7510            0.0000000000
     22643      7521  TIP3      H1              6.3129060826      -30.6186124282       28.5466190441  SOLV      7510            0.0000000000
     22644      7521  TIP3      H2              6.4831381292      -29.4657820399       27.5957194523  SOLV      7510            0.0000000000
     22645      7522  TIP3      OH2             7.4162966808      -27.8625401924       33.1022015483  SOLV      7511            0.0000000000
     22646      7522  TIP3      H1              8.1938491179      -27.7643679703       32.5189344179  SOLV      7511            0.0000000000
     22647      7522  TIP3      H2              7.8234762132      -27.5380248092       33.9368051344  SOLV      7511            0.0000000000
     22648      7523  TIP3      OH2             3.3765685177      -17.6076205175       27.6804451275  SOLV      7512            0.0000000000
     22649      7523  TIP3      H1              3.9282659109      -17.6549791701       26.8730668276  SOLV      7512            0.0000000000
     22650      7523  TIP3      H2              3.8546010323      -16.9488858965       28.2143208601  SOLV      7512            0.0000000000
     22651      7524  TIP3      OH2            -0.4117327154      -16.3417465300       33.8157640378  SOLV      7513            0.0000000000
     22652      7524  TIP3      H1             -1.0916866434      -16.3973350793       33.1176722523  SOLV      7513            0.0000000000
     22653      7524  TIP3      H2             -0.6062140417      -15.4926763163       34.2262141994  SOLV      7513            0.0000000000
     22654      7525  TIP3      OH2             2.1414421679      -17.3537575675       33.9733715662  SOLV      7514            0.0000000000
     22655      7525  TIP3      H1              1.2400748949      -16.9714184784       34.0239870343  SOLV      7514            0.0000000000
     22656      7525  TIP3      H2              2.7016630523      -16.5654501095       33.9658397038  SOLV      7514            0.0000000000
     22657      7526  TIP3      OH2             4.3218259122      -15.2183108177       33.4299408141  SOLV      7515            0.0000000000
     22658      7526  TIP3      H1              4.0956080327      -14.4206265424       32.9107423813  SOLV      7515            0.0000000000
     22659      7526  TIP3      H2              4.5145753806      -15.8793372163       32.7313660382  SOLV      7515            0.0000000000
     22660      7527  TIP3      OH2            -3.1691226346      -18.9256097299       33.0887495328  SOLV      7516            0.0000000000
     22661      7527  TIP3      H1             -2.8108459368      -19.7980177567       32.8275854553  SOLV      7516            0.0000000000
     22662      7527  TIP3      H2             -3.3531020510      -19.1031595165       34.0164867080  SOLV      7516            0.0000000000
     22663      7528  TIP3      OH2           -10.0835732304      -20.9807510558       28.3227379275  SOLV      7517            0.0000000000
     22664      7528  TIP3      H1            -10.9892140107      -21.3033746338       28.1622355136  SOLV      7517            0.0000000000
     22665      7528  TIP3      H2            -10.2103549700      -20.0452314621       28.0622347670  SOLV      7517            0.0000000000
     22666      7529  TIP3      OH2            -2.3459603916      -19.1932255309       24.4358434267  SOLV      7518            0.0000000000
     22667      7529  TIP3      H1             -1.4718005441      -18.9473980480       24.0673059469  SOLV      7518            0.0000000000
     22668      7529  TIP3      H2             -2.5706495025      -19.9284882167       23.8217030234  SOLV      7518            0.0000000000
     22669      7530  TIP3      OH2             4.8819208609      -17.9162139929       25.3681835585  SOLV      7519            0.0000000000
     22670      7530  TIP3      H1              4.7976593633      -18.8957809704       25.2840734013  SOLV      7519            0.0000000000
     22671      7530  TIP3      H2              4.3748486331      -17.6237297754       24.5840226778  SOLV      7519            0.0000000000
     22672      7531  TIP3      OH2            -9.3352236967      -20.7999231656       24.9506280168  SOLV      7520            0.0000000000
     22673      7531  TIP3      H1             -9.3370483192      -20.6218030962       25.9024539002  SOLV      7520            0.0000000000
     22674      7531  TIP3      H2             -8.4555792728      -21.2241713224       24.8180313021  SOLV      7520            0.0000000000
     22675      7532  TIP3      OH2            19.7846830551      -22.7619977238       24.8864858953  SOLV      7521            0.0000000000
     22676      7532  TIP3      H1             19.4834220504      -21.8557701039       24.6787401282  SOLV      7521            0.0000000000
     22677      7532  TIP3      H2             19.0300966475      -23.2833386208       24.5610412305  SOLV      7521            0.0000000000
     22678      7533  TIP3      OH2            19.6357488716      -22.9759037014       28.7481124898  SOLV      7522            0.0000000000
     22679      7533  TIP3      H1             19.6190775409      -23.5200002155       29.5489032548  SOLV      7522            0.0000000000
     22680      7533  TIP3      H2             19.3207980675      -23.6216667871       28.0971089261  SOLV      7522            0.0000000000
     22681      7534  TIP3      OH2            12.6989949254      -23.7254429719       32.3161910006  SOLV      7523            0.0000000000
     22682      7534  TIP3      H1             12.8698622851      -24.4529461357       32.9526938983  SOLV      7523            0.0000000000
     22683      7534  TIP3      H2             13.6029914224      -23.5288482648       32.0230477579  SOLV      7523            0.0000000000
     22684      7535  TIP3      OH2            22.1955863107      -19.7040689184       25.5516995047  SOLV      7524            0.0000000000
     22685      7535  TIP3      H1             22.0396324112      -20.3343189400       26.2720763665  SOLV      7524            0.0000000000
     22686      7535  TIP3      H2             22.5251489613      -18.9258830558       26.0436620459  SOLV      7524            0.0000000000
     22687      7536  TIP3      OH2            12.4750093385      -19.7364397732       29.5163587824  SOLV      7525            0.0000000000
     22688      7536  TIP3      H1             12.3873070117      -20.7128952821       29.5489856509  SOLV      7525            0.0000000000
     22689      7536  TIP3      H2             13.4424961439      -19.6399804827       29.5362035286  SOLV      7525            0.0000000000
     22690      7537  TIP3      OH2             9.4646755431      -27.7963895313       27.4320955706  SOLV      7526            0.0000000000
     22691      7537  TIP3      H1              9.0582495120      -26.9472938728       27.6785079198  SOLV      7526            0.0000000000
     22692      7537  TIP3      H2              8.7295586020      -28.2123572751       26.9485750844  SOLV      7526            0.0000000000
     22693      7538  TIP3      OH2            10.1071520946      -24.8335120722       29.0722997133  SOLV      7527            0.0000000000
     22694      7538  TIP3      H1             10.6080864909      -25.6141476410       29.4099680443  SOLV      7527            0.0000000000
     22695      7538  TIP3      H2             10.7770786967      -24.4003481188       28.5277502466  SOLV      7527            0.0000000000
     22696      7539  TIP3      OH2            18.7037422170      -15.1622214737       25.7101801479  SOLV      7528            0.0000000000
     22697      7539  TIP3      H1             19.1312077036      -15.8857926488       25.2100517012  SOLV      7528            0.0000000000
     22698      7539  TIP3      H2             18.6948680771      -15.5220511538       26.6072966240  SOLV      7528            0.0000000000
     22699      7540  TIP3      OH2            17.7368464749      -20.4931840456       29.1927438567  SOLV      7529            0.0000000000
     22700      7540  TIP3      H1             18.1419310945      -21.2924402485       28.8184344196  SOLV      7529            0.0000000000
     22701      7540  TIP3      H2             18.5616819670      -20.0212329367       29.4472041339  SOLV      7529            0.0000000000
     22702      7541  TIP3      OH2            22.2413562314      -25.2817571551       29.1587223933  SOLV      7530            0.0000000000
     22703      7541  TIP3      H1             22.2809528157      -26.0043240070       29.8079573894  SOLV      7530            0.0000000000
     22704      7541  TIP3      H2             21.6467159465      -25.6570707058       28.4777144854  SOLV      7530            0.0000000000
     22705      7542  TIP3      OH2            15.0352003801      -28.9308423332       29.1960684072  SOLV      7531            0.0000000000
     22706      7542  TIP3      H1             14.7701828074      -28.2795793848       28.5151145377  SOLV      7531            0.0000000000
     22707      7542  TIP3      H2             14.5439135870      -29.7214578322       28.9305211155  SOLV      7531            0.0000000000
     22708      7543  TIP3      OH2            22.2719244495      -27.6994392652       25.4473524491  SOLV      7532            0.0000000000
     22709      7543  TIP3      H1             22.4363620887      -28.5140574726       25.9794070711  SOLV      7532            0.0000000000
     22710      7543  TIP3      H2             22.8159742412      -27.8414170841       24.6592338535  SOLV      7532            0.0000000000
     22711      7544  TIP3      OH2            11.6031851210      -26.8475576051       30.0128589263  SOLV      7533            0.0000000000
     22712      7544  TIP3      H1             12.3964283970      -26.9948507543       30.5854456090  SOLV      7533            0.0000000000
     22713      7544  TIP3      H2             11.8413854213      -27.4380211897       29.2690579933  SOLV      7533            0.0000000000
     22714      7545  TIP3      OH2            15.9156369550      -24.9006398526       28.2248619207  SOLV      7534            0.0000000000
     22715      7545  TIP3      H1             16.8659091664      -25.1503199264       28.2803452807  SOLV      7534            0.0000000000
     22716      7545  TIP3      H2             15.5157059295      -25.7491805752       27.9322999949  SOLV      7534            0.0000000000
     22717      7546  TIP3      OH2            18.6937235709      -20.5457233066       23.5403638642  SOLV      7535            0.0000000000
     22718      7546  TIP3      H1             18.1324361940      -20.7353809235       22.7829068256  SOLV      7535            0.0000000000
     22719      7546  TIP3      H2             18.2745994237      -19.7218636232       23.8707838503  SOLV      7535            0.0000000000
     22720      7547  TIP3      OH2            16.2732342086      -21.3080499581       31.3586985301  SOLV      7536            0.0000000000
     22721      7547  TIP3      H1             15.6837465131      -20.6098544651       31.7200907648  SOLV      7536            0.0000000000
     22722      7547  TIP3      H2             16.7091885493      -20.8412269342       30.6152445530  SOLV      7536            0.0000000000
     22723      7548  TIP3      OH2            13.8109045557      -27.5644182049       31.2964527157  SOLV      7537            0.0000000000
     22724      7548  TIP3      H1             14.6035703892      -27.0933087302       31.6169978445  SOLV      7537            0.0000000000
     22725      7548  TIP3      H2             14.2004562011      -28.2533328235       30.7266386387  SOLV      7537            0.0000000000
     22726      7549  TIP3      OH2            14.5540364818      -19.3393756417       32.3694399461  SOLV      7538            0.0000000000
     22727      7549  TIP3      H1             14.3226593444      -18.4438914135       32.0439996755  SOLV      7538            0.0000000000
     22728      7549  TIP3      H2             13.7378252690      -19.5379732657       32.8762194925  SOLV      7538            0.0000000000
     22729      7550  TIP3      OH2             8.4668189655      -22.4626351143       24.7593265044  SOLV      7539            0.0000000000
     22730      7550  TIP3      H1              8.0455258452      -22.1273255081       23.9499887021  SOLV      7539            0.0000000000
     22731      7550  TIP3      H2              8.7994258871      -21.6268086169       25.1550956530  SOLV      7539            0.0000000000
     22732      7551  TIP3      OH2            22.7780726615      -17.3253809596       27.0096337525  SOLV      7540            0.0000000000
     22733      7551  TIP3      H1             21.9081209270      -17.4248108477       27.4602978096  SOLV      7540            0.0000000000
     22734      7551  TIP3      H2             22.7313279909      -16.3861507017       26.7436637413  SOLV      7540            0.0000000000
     22735      7552  TIP3      OH2            19.8605886838      -16.9054972811       23.8470675764  SOLV      7541            0.0000000000
     22736      7552  TIP3      H1             20.4020791715      -17.7132172880       23.6928247625  SOLV      7541            0.0000000000
     22737      7552  TIP3      H2             20.4761881806      -16.2338091502       23.4738136959  SOLV      7541            0.0000000000
     22738      7553  TIP3      OH2            21.3518668235      -19.0599061746       23.0372609690  SOLV      7542            0.0000000000
     22739      7553  TIP3      H1             20.8214095447      -19.8426212612       22.8452057475  SOLV      7542            0.0000000000
     22740      7553  TIP3      H2             21.7727196302      -19.3228370923       23.8883522815  SOLV      7542            0.0000000000
     22741      7554  TIP3      OH2            18.0856185938      -24.2164522959       23.2083302962  SOLV      7543            0.0000000000
     22742      7554  TIP3      H1             17.2610847328      -23.7403388862       22.9912559769  SOLV      7543            0.0000000000
     22743      7554  TIP3      H2             18.5239036680      -24.3003538590       22.3431604292  SOLV      7543            0.0000000000
     22744      7555  TIP3      OH2            17.6115133784      -26.3293569504       20.2817660356  SOLV      7544            0.0000000000
     22745      7555  TIP3      H1             18.2835673956      -25.8819608227       20.8249192545  SOLV      7544            0.0000000000
     22746      7555  TIP3      H2             18.1909752333      -26.9281754519       19.7642310335  SOLV      7544            0.0000000000
     22747      7556  TIP3      OH2            21.5297538742      -23.3783382063       22.8515071157  SOLV      7545            0.0000000000
     22748      7556  TIP3      H1             21.0107538414      -23.1742675529       23.6645536526  SOLV      7545            0.0000000000
     22749      7556  TIP3      H2             22.3900742198      -23.6232799915       23.2546637280  SOLV      7545            0.0000000000
     22750      7557  TIP3      OH2            13.9045084067      -23.4429389414       27.0561786620  SOLV      7546            0.0000000000
     22751      7557  TIP3      H1             13.4782916542      -24.0445087485       26.4099365803  SOLV      7546            0.0000000000
     22752      7557  TIP3      H2             14.6291805490      -24.0042763142       27.4113552311  SOLV      7546            0.0000000000
     22753      7558  TIP3      OH2            15.1983599210      -19.3252953929       28.5482488239  SOLV      7547            0.0000000000
     22754      7558  TIP3      H1             15.0008349006      -19.7242736155       27.6894165585  SOLV      7547            0.0000000000
     22755      7558  TIP3      H2             16.0882961261      -19.6871342373       28.7424956603  SOLV      7547            0.0000000000
     22756      7559  TIP3      OH2            15.1270740974      -23.7397355396       30.6578028252  SOLV      7548            0.0000000000
     22757      7559  TIP3      H1             15.4603127411      -24.0443856462       29.7860196333  SOLV      7548            0.0000000000
     22758      7559  TIP3      H2             15.6115672730      -22.8959505643       30.7914670446  SOLV      7548            0.0000000000
     22759      7560  TIP3      OH2            20.4262467225      -17.3755575352       28.3469953741  SOLV      7549            0.0000000000
     22760      7560  TIP3      H1             20.3733506181      -16.5514046288       28.8718124541  SOLV      7549            0.0000000000
     22761      7560  TIP3      H2             20.2791712744      -18.0678391252       29.0187264781  SOLV      7549            0.0000000000
     22762      7561  TIP3      OH2            16.6161595135      -18.3004115804       33.8768225733  SOLV      7550            0.0000000000
     22763      7561  TIP3      H1             15.9973827941      -17.6231489575       34.2391274973  SOLV      7550            0.0000000000
     22764      7561  TIP3      H2             15.9883583597      -18.8050780849       33.3194377469  SOLV      7550            0.0000000000
     22765      7562  TIP3      OH2            19.9116864039      -24.8286102091       21.1770348153  SOLV      7551            0.0000000000
     22766      7562  TIP3      H1             20.5248576503      -24.2500799566       21.6868229899  SOLV      7551            0.0000000000
     22767      7562  TIP3      H2             20.2039797888      -24.6363905647       20.2522156651  SOLV      7551            0.0000000000
     22768      7563  TIP3      OH2            13.8931165093      -22.4134343456       34.8946437842  SOLV      7552            0.0000000000
     22769      7563  TIP3      H1             13.9878040181      -21.5396344561       35.3269083381  SOLV      7552            0.0000000000
     22770      7563  TIP3      H2             13.0052447277      -22.3616069140       34.5150779206  SOLV      7552            0.0000000000
     22771      7564  TIP3      OH2            17.4131387078      -18.1080936825       23.8298021727  SOLV      7553            0.0000000000
     22772      7564  TIP3      H1             18.2611270872      -17.6269969104       23.9361157206  SOLV      7553            0.0000000000
     22773      7564  TIP3      H2             16.8062619555      -17.3864891575       23.6218083911  SOLV      7553            0.0000000000
     22774      7565  TIP3      OH2            14.6495657817      -16.6054403775       34.5569720826  SOLV      7554            0.0000000000
     22775      7565  TIP3      H1             14.2494411619      -16.4832021256       33.6744713308  SOLV      7554            0.0000000000
     22776      7565  TIP3      H2             13.8555842726      -16.7727966739       35.1183270067  SOLV      7554            0.0000000000
     22777      7566  TIP3      OH2            12.5581654200      -24.9793189035       25.0873060019  SOLV      7555            0.0000000000
     22778      7566  TIP3      H1             11.7851942043      -24.6420073449       24.5895271019  SOLV      7555            0.0000000000
     22779      7566  TIP3      H2             12.3338579788      -25.9076243619       25.2216579177  SOLV      7555            0.0000000000
     22780      7567  TIP3      OH2            23.1796286421      -18.7982958457       17.1975643347  SOLV      7556            0.0000000000
     22781      7567  TIP3      H1             23.2516123548      -17.8380477253       17.0050774436  SOLV      7556            0.0000000000
     22782      7567  TIP3      H2             24.1053984053      -19.0913446338       17.0529179182  SOLV      7556            0.0000000000
     22783      7568  TIP3      OH2            10.4244422098      -21.4459853658       34.1922860780  SOLV      7557            0.0000000000
     22784      7568  TIP3      H1              9.6844527239      -21.1990457031       33.6058337618  SOLV      7557            0.0000000000
     22785      7568  TIP3      H2             10.2105314898      -22.3828065294       34.3385055751  SOLV      7557            0.0000000000
     22786      7569  TIP3      OH2             8.8796551321      -19.2259987379       30.4636166275  SOLV      7558            0.0000000000
     22787      7569  TIP3      H1              9.8462750148      -19.2719179008       30.4790169579  SOLV      7558            0.0000000000
     22788      7569  TIP3      H2              8.7165084179      -18.4730615040       31.0533476318  SOLV      7558            0.0000000000
     22789      7570  TIP3      OH2            18.6038759358      -17.0221563019       32.5043412694  SOLV      7559            0.0000000000
     22790      7570  TIP3      H1             18.5009885593      -16.0713891172       32.7297145100  SOLV      7559            0.0000000000
     22791      7570  TIP3      H2             17.9016261048      -17.4229260794       33.0645527910  SOLV      7559            0.0000000000
     22792      7571  TIP3      OH2            16.2092594395      -15.6307549186       22.1133611170  SOLV      7560            0.0000000000
     22793      7571  TIP3      H1             15.5866008566      -15.7767301206       21.3941890941  SOLV      7560            0.0000000000
     22794      7571  TIP3      H2             15.9641690015      -14.7360004117       22.4230035854  SOLV      7560            0.0000000000
     22795      7572  TIP3      OH2            10.5961808106      -17.1411083995       25.8321426155  SOLV      7561            0.0000000000
     22796      7572  TIP3      H1             11.0659549565      -17.2025393661       26.6955099163  SOLV      7561            0.0000000000
     22797      7572  TIP3      H2             10.0536506721      -17.9462070533       25.8663382082  SOLV      7561            0.0000000000
     22798      7573  TIP3      OH2            18.6877659319      -16.0440847374       21.0304107855  SOLV      7562            0.0000000000
     22799      7573  TIP3      H1             17.8238761508      -16.0059010786       21.4887267457  SOLV      7562            0.0000000000
     22800      7573  TIP3      H2             19.2665689489      -16.3886143742       21.7275023836  SOLV      7562            0.0000000000
     22801      7574  TIP3      OH2            12.2536681829      -19.3980508009       33.9143635729  SOLV      7563            0.0000000000
     22802      7574  TIP3      H1             12.7620089213      -19.3943155389       34.7479975331  SOLV      7563            0.0000000000
     22803      7574  TIP3      H2             11.6041553912      -20.1179700872       34.0776917046  SOLV      7563            0.0000000000
     22804      7575  TIP3      OH2            20.6698361590      -24.2722339636       18.6519404340  SOLV      7564            0.0000000000
     22805      7575  TIP3      H1             20.3228541940      -24.6028989108       17.8007441470  SOLV      7564            0.0000000000
     22806      7575  TIP3      H2             21.5621382950      -23.9762832687       18.3761957279  SOLV      7564            0.0000000000
     22807      7576  TIP3      OH2            15.8196387081      -25.9377830444       32.1744176005  SOLV      7565            0.0000000000
     22808      7576  TIP3      H1             15.4414061984      -25.5283529353       32.9718706084  SOLV      7565            0.0000000000
     22809      7576  TIP3      H2             15.6965852930      -25.1970510982       31.5465753643  SOLV      7565            0.0000000000
     22810      7577  TIP3      OH2            14.3903501765      -27.0290492107       27.3089283392  SOLV      7566            0.0000000000
     22811      7577  TIP3      H1             13.4958203628      -27.4203200112       27.3748523525  SOLV      7566            0.0000000000
     22812      7577  TIP3      H2             14.6561374822      -27.3386881564       26.4095240088  SOLV      7566            0.0000000000
     22813      7578  TIP3      OH2            19.3967903842      -26.2470926555       24.5462908305  SOLV      7567            0.0000000000
     22814      7578  TIP3      H1             18.9196895968      -25.5371352800       24.0676778179  SOLV      7567            0.0000000000
     22815      7578  TIP3      H2             19.9705164380      -26.6256527710       23.8550957883  SOLV      7567            0.0000000000
     22816      7579  TIP3      OH2            20.8295014220      -25.9176421198       26.8497512558  SOLV      7568            0.0000000000
     22817      7579  TIP3      H1             20.1178529473      -25.8258314474       26.1802967461  SOLV      7568            0.0000000000
     22818      7579  TIP3      H2             21.3361691505      -26.6318431496       26.3927601788  SOLV      7568            0.0000000000
     22819      7580  TIP3      OH2            13.6095298591      -25.5755028501       34.1410125567  SOLV      7569            0.0000000000
     22820      7580  TIP3      H1             14.3527193844      -25.1064552098       34.5615856561  SOLV      7569            0.0000000000
     22821      7580  TIP3      H2             13.7147657137      -26.4860129762       34.4368216378  SOLV      7569            0.0000000000
     22822      7581  TIP3      OH2            14.2187020552      -30.8450385595       21.7199294954  SOLV      7570            0.0000000000
     22823      7581  TIP3      H1             14.1189457025      -30.5777596293       22.6452413066  SOLV      7570            0.0000000000
     22824      7581  TIP3      H2             13.3220527043      -30.7346210109       21.3816133479  SOLV      7570            0.0000000000
     22825      7582  TIP3      OH2             9.7932448307      -30.3728447105       25.2967078878  SOLV      7571            0.0000000000
     22826      7582  TIP3      H1             10.0721384587      -29.9474105558       24.4629258807  SOLV      7571            0.0000000000
     22827      7582  TIP3      H2              9.0849112626      -29.7780304393       25.5857897836  SOLV      7571            0.0000000000
     22828      7583  TIP3      OH2            17.2922847260      -28.6213051060       27.5739243422  SOLV      7572            0.0000000000
     22829      7583  TIP3      H1             16.7184981857      -28.5857302262       28.3633428294  SOLV      7572            0.0000000000
     22830      7583  TIP3      H2             18.1717868051      -28.4275368715       27.9566825594  SOLV      7572            0.0000000000
     22831      7584  TIP3      OH2            12.0769661495      -28.4944693082       27.8530224990  SOLV      7573            0.0000000000
     22832      7584  TIP3      H1             11.1422868871      -28.3101044405       27.6001396842  SOLV      7573            0.0000000000
     22833      7584  TIP3      H2             12.0338186629      -29.4461591694       28.0694752299  SOLV      7573            0.0000000000
     22834      7585  TIP3      OH2            14.9288998035      -28.0418906148       24.8575208813  SOLV      7574            0.0000000000
     22835      7585  TIP3      H1             15.8512834202      -28.2977366426       24.6489284537  SOLV      7574            0.0000000000
     22836      7585  TIP3      H2             14.4566427387      -28.1686324799       24.0159815961  SOLV      7574            0.0000000000
     22837      7586  TIP3      OH2            13.1846497122      -27.9934545841       22.5555682953  SOLV      7575            0.0000000000
     22838      7586  TIP3      H1             12.4876425280      -28.3404484297       21.9738756476  SOLV      7575            0.0000000000
     22839      7586  TIP3      H2             13.7900142803      -27.6013245392       21.8938904095  SOLV      7575            0.0000000000
     22840      7587  TIP3      OH2            24.2798569495      -11.3298004895       32.0109751262  SOLV      7576            0.0000000000
     22841      7587  TIP3      H1             24.4254429118      -11.0333183339       31.0942451656  SOLV      7576            0.0000000000
     22842      7587  TIP3      H2             25.1658239463      -11.2832970407       32.4013104118  SOLV      7576            0.0000000000
     22843      7588  TIP3      OH2            14.1547140261      -19.9340101059       36.0696195995  SOLV      7577            0.0000000000
     22844      7588  TIP3      H1             14.8846658796      -19.3580439004       36.3482294544  SOLV      7577            0.0000000000
     22845      7588  TIP3      H2             13.6563260596      -20.0391943706       36.9088638349  SOLV      7577            0.0000000000
     22846      7589  TIP3      OH2            18.4802608641      -25.6562023117       28.7524449214  SOLV      7578            0.0000000000
     22847      7589  TIP3      H1             19.0676391872      -26.3385776902       28.3815734647  SOLV      7578            0.0000000000
     22848      7589  TIP3      H2             18.5896572035      -25.7884751796       29.7077405207  SOLV      7578            0.0000000000
     22849      7590  TIP3      OH2           -39.1493735956        0.7009523575      -24.9214331339  SOLV      7579            0.0000000000
     22850      7590  TIP3      H1            -39.7700607756        1.4356801092      -24.7328716791  SOLV      7579            0.0000000000
     22851      7590  TIP3      H2            -38.5047633443        0.7543499465      -24.2071952212  SOLV      7579            0.0000000000
     22852      7591  TIP3      OH2            15.7708955191      -22.7285108922       22.6286284390  SOLV      7580            0.0000000000
     22853      7591  TIP3      H1             15.0609771578      -23.4010475423       22.5288813603  SOLV      7580            0.0000000000
     22854      7591  TIP3      H2             15.5668326869      -22.4019435166       23.5434274674  SOLV      7580            0.0000000000
     22855      7592  TIP3      OH2            24.1445716624      -20.3115157323       29.3788709871  SOLV      7581            0.0000000000
     22856      7592  TIP3      H1             24.8632267312      -19.9633068008       28.8242466284  SOLV      7581            0.0000000000
     22857      7592  TIP3      H2             23.5612473677      -20.7264133641       28.7217023675  SOLV      7581            0.0000000000
     22858      7593  TIP3      OH2            20.1432612966      -29.3138786554       20.8401880455  SOLV      7582            0.0000000000
     22859      7593  TIP3      H1             19.5254129725      -29.7651914924       21.4272173844  SOLV      7582            0.0000000000
     22860      7593  TIP3      H2             20.5345221006      -28.6383285125       21.4321577997  SOLV      7582            0.0000000000
     22861      7594  TIP3      OH2            20.1452272272      -19.4883399620       32.6346775597  SOLV      7583            0.0000000000
     22862      7594  TIP3      H1             19.8798331833      -20.0199145867       33.4207506989  SOLV      7583            0.0000000000
     22863      7594  TIP3      H2             19.5303941653      -18.7364015139       32.7035194395  SOLV      7583            0.0000000000
     22864      7595  TIP3      OH2            21.0666482298      -27.1737941440       22.3387687769  SOLV      7584            0.0000000000
     22865      7595  TIP3      H1             22.0069506140      -27.0601501070       22.5811988295  SOLV      7584            0.0000000000
     22866      7595  TIP3      H2             20.8614170974      -26.3476692999       21.8649892859  SOLV      7584            0.0000000000
     22867      7596  TIP3      OH2            12.6821661761      -22.5160808899       29.3627244088  SOLV      7585            0.0000000000
     22868      7596  TIP3      H1             13.0949341119      -22.7967065541       28.5211314849  SOLV      7585            0.0000000000
     22869      7596  TIP3      H2             13.1662450250      -23.0522952555       30.0099717873  SOLV      7585            0.0000000000
     22870      7597  TIP3      OH2            17.1503418241      -21.1219465587       20.9183911439  SOLV      7586            0.0000000000
     22871      7597  TIP3      H1             16.5770289962      -20.3350310760       21.1101290336  SOLV      7586            0.0000000000
     22872      7597  TIP3      H2             16.7235715839      -21.7893481056       21.5034619809  SOLV      7586            0.0000000000
     22873      7598  TIP3      OH2            21.1647597675      -16.6575011369       31.3217144058  SOLV      7587            0.0000000000
     22874      7598  TIP3      H1             20.2832258133      -16.8527013477       31.6905674754  SOLV      7587            0.0000000000
     22875      7598  TIP3      H2             21.7435762658      -17.1980818529       31.8781949583  SOLV      7587            0.0000000000
     22876      7599  TIP3      OH2            25.3377103049      -26.2012146894       20.7695275274  SOLV      7588            0.0000000000
     22877      7599  TIP3      H1             24.7963118433      -26.6791613085       20.1009305097  SOLV      7588            0.0000000000
     22878      7599  TIP3      H2             25.3138152121      -25.3079848447       20.3604968438  SOLV      7588            0.0000000000
     22879      7600  TIP3      OH2            22.3176491996      -18.0392406288       19.7805090343  SOLV      7589            0.0000000000
     22880      7600  TIP3      H1             22.3028580963      -18.7332335598       20.4536116406  SOLV      7589            0.0000000000
     22881      7600  TIP3      H2             22.5920958779      -18.5047975799       18.9687050288  SOLV      7589            0.0000000000
     22882      7601  TIP3      OH2            21.9920366297      -21.6637717418       27.8737329614  SOLV      7590            0.0000000000
     22883      7601  TIP3      H1             21.1259645712      -21.9859098554       28.1996730829  SOLV      7590            0.0000000000
     22884      7601  TIP3      H2             22.2463559872      -22.3994534490       27.2862421695  SOLV      7590            0.0000000000
     22885      7602  TIP3      OH2            13.7016995418      -19.4750532895       25.6299413634  SOLV      7591            0.0000000000
     22886      7602  TIP3      H1             13.6203076928      -18.6389853611       25.1335914252  SOLV      7591            0.0000000000
     22887      7602  TIP3      H2             12.7963067316      -19.6144434072       25.9294507455  SOLV      7591            0.0000000000
     22888      7603  TIP3      OH2             9.3295665187      -26.4440257750       22.7497261898  SOLV      7592            0.0000000000
     22889      7603  TIP3      H1              9.7983251160      -25.6100271314       22.9733481820  SOLV      7592            0.0000000000
     22890      7603  TIP3      H2              8.5928161117      -26.4097512472       23.3980516422  SOLV      7592            0.0000000000
     22891      7604  TIP3      OH2            15.0148481477      -21.8415944264       25.0462296000  SOLV      7593            0.0000000000
     22892      7604  TIP3      H1             14.6557135561      -20.9594678478       25.2751240627  SOLV      7593            0.0000000000
     22893      7604  TIP3      H2             14.7105718098      -22.3704795355       25.8102379080  SOLV      7593            0.0000000000
     22894      7605  TIP3      OH2            16.4063006912      -16.0244682648       30.3423278551  SOLV      7594            0.0000000000
     22895      7605  TIP3      H1             16.8252599366      -15.2790510503       29.8617589283  SOLV      7594            0.0000000000
     22896      7605  TIP3      H2             17.1723882242      -16.4030453934       30.7997522391  SOLV      7594            0.0000000000
     22897      7606  TIP3      OH2            12.8473266554      -17.0502689411       24.1785203041  SOLV      7595            0.0000000000
     22898      7606  TIP3      H1             12.0128548841      -16.9746168442       24.6856354821  SOLV      7595            0.0000000000
     22899      7606  TIP3      H2             13.1833413741      -16.1276947574       24.2439660629  SOLV      7595            0.0000000000
     22900      7607  TIP3      OH2            20.2636552697      -19.7062035553       29.9225958056  SOLV      7596            0.0000000000
     22901      7607  TIP3      H1             20.3104250659      -19.6920288436       30.9052701819  SOLV      7596            0.0000000000
     22902      7607  TIP3      H2             21.1098816330      -20.1131967742       29.6879884515  SOLV      7596            0.0000000000
     22903      7608  TIP3      OH2            19.6212271969      -20.9491728251       19.2627530196  SOLV      7597            0.0000000000
     22904      7608  TIP3      H1             20.4731571405      -20.7602999843       19.7395984538  SOLV      7597            0.0000000000
     22905      7608  TIP3      H2             19.5995899836      -21.9043527961       19.4659741619  SOLV      7597            0.0000000000
     22906      7609  TIP3      OH2            22.3754138535      -14.1734168703       30.6011341024  SOLV      7598            0.0000000000
     22907      7609  TIP3      H1             21.7588396543      -14.9327011229       30.4984280147  SOLV      7598            0.0000000000
     22908      7609  TIP3      H2             22.3164687390      -13.7469054786       29.7180974408  SOLV      7598            0.0000000000
     22909      7610  TIP3      OH2            23.4353311753      -16.0324169751       16.9965482140  SOLV      7599            0.0000000000
     22910      7610  TIP3      H1             23.8540953905      -15.2799003998       16.5415551462  SOLV      7599            0.0000000000
     22911      7610  TIP3      H2             22.6168564471      -15.5939080007       17.3056431485  SOLV      7599            0.0000000000
     22912      7611  TIP3      OH2            21.6643989636      -21.4456437302       20.8653019423  SOLV      7600            0.0000000000
     22913      7611  TIP3      H1             21.5685900764      -22.0649001443       21.6149640093  SOLV      7600            0.0000000000
     22914      7611  TIP3      H2             22.6366295207      -21.4776843961       20.7376445873  SOLV      7600            0.0000000000
     22915      7612  TIP3      OH2            10.7996393275      -17.4494260479       31.9532103583  SOLV      7601            0.0000000000
     22916      7612  TIP3      H1             11.3331243495      -18.1179903449       32.4222101136  SOLV      7601            0.0000000000
     22917      7612  TIP3      H2             11.0352474753      -16.6447251445       32.4343796181  SOLV      7601            0.0000000000
     22918      7613  TIP3      OH2            13.5783718269      -20.9385442639       18.7210997117  SOLV      7602            0.0000000000
     22919      7613  TIP3      H1             13.6895529557      -21.8772012693       18.4925138183  SOLV      7602            0.0000000000
     22920      7613  TIP3      H2             13.4579230780      -20.9860961972       19.6902069529  SOLV      7602            0.0000000000
     22921      7614  TIP3      OH2            13.1491677993      -20.9296584002       21.4492376986  SOLV      7603            0.0000000000
     22922      7614  TIP3      H1             13.7654576036      -21.2487135717       22.1220410208  SOLV      7603            0.0000000000
     22923      7614  TIP3      H2             13.1598404973      -19.9580913546       21.6094376914  SOLV      7603            0.0000000000
     22924      7615  TIP3      OH2            10.3967298780      -24.0232809347       23.5642425445  SOLV      7604            0.0000000000
     22925      7615  TIP3      H1              9.7499568855      -23.5627332521       24.1425218227  SOLV      7604            0.0000000000
     22926      7615  TIP3      H2             10.5387361605      -23.3297002444       22.8914537426  SOLV      7604            0.0000000000
     22927      7616  TIP3      OH2            15.8437348119      -18.8730208003       20.8286249420  SOLV      7605            0.0000000000
     22928      7616  TIP3      H1             14.9856462529      -18.7474097335       21.2870364482  SOLV      7605            0.0000000000
     22929      7616  TIP3      H2             15.9253888036      -18.0018844143       20.3890808669  SOLV      7605            0.0000000000
     22930      7617  TIP3      OH2            17.7069067652      -28.4186329215       24.9043343500  SOLV      7606            0.0000000000
     22931      7617  TIP3      H1             18.3418603682      -27.6762796183       24.8942538218  SOLV      7606            0.0000000000
     22932      7617  TIP3      H2             17.5325699447      -28.5030386670       25.8668544651  SOLV      7606            0.0000000000
     22933      7618  TIP3      OH2            13.3290989459      -18.2425554149       21.7522277514  SOLV      7607            0.0000000000
     22934      7618  TIP3      H1             13.0227313730      -17.5659420535       21.1117695830  SOLV      7607            0.0000000000
     22935      7618  TIP3      H2             13.1210417215      -17.8086404653       22.6126047030  SOLV      7607            0.0000000000
     22936      7619  TIP3      OH2            22.9252615274      -24.0783507234       26.7402696088  SOLV      7608            0.0000000000
     22937      7619  TIP3      H1             22.1096270590      -24.6193077154       26.7928441878  SOLV      7608            0.0000000000
     22938      7619  TIP3      H2             23.2304427988      -24.1461127973       27.6625576280  SOLV      7608            0.0000000000
     22939      7620  TIP3      OH2            10.4317202398      -21.9689046622       21.5984161684  SOLV      7609            0.0000000000
     22940      7620  TIP3      H1             11.1231136224      -21.2921599516       21.7051142962  SOLV      7609            0.0000000000
     22941      7620  TIP3      H2             10.8760420148      -22.5431398191       20.9366014245  SOLV      7609            0.0000000000
     22942      7621  TIP3      OH2             9.7387303182      -29.1744715040       22.8197681236  SOLV      7610            0.0000000000
     22943      7621  TIP3      H1              9.9366222085      -28.2204208237       22.7441205465  SOLV      7610            0.0000000000
     22944      7621  TIP3      H2              8.7777967081      -29.1628772959       22.8137429874  SOLV      7610            0.0000000000
     22945      7622  TIP3      OH2            22.9506278813      -14.5885766449       26.3447186276  SOLV      7611            0.0000000000
     22946      7622  TIP3      H1             22.5407266128      -14.1021440119       25.5951096933  SOLV      7611            0.0000000000
     22947      7622  TIP3      H2             23.8988840849      -14.4884067231       26.1332556238  SOLV      7611            0.0000000000
     22948      7623  TIP3      OH2             9.0233109070      -19.8178251195       25.4258359750  SOLV      7612            0.0000000000
     22949      7623  TIP3      H1              8.4813155823      -19.4857571703       26.1564113782  SOLV      7612            0.0000000000
     22950      7623  TIP3      H2              8.6416441022      -19.3383707920       24.6515321010  SOLV      7612            0.0000000000
     22951      7624  TIP3      OH2            10.7337941614      -14.3298996256       35.7571341832  SOLV      7613            0.0000000000
     22952      7624  TIP3      H1             11.6284469360      -14.3640939604       36.1788669175  SOLV      7613            0.0000000000
     22953      7624  TIP3      H2             10.5603364963      -15.2800412930       35.6367604153  SOLV      7613            0.0000000000
     22954      7625  TIP3      OH2            15.5626838405      -14.4899155743       35.9730151160  SOLV      7614            0.0000000000
     22955      7625  TIP3      H1             16.3233255123      -14.7818018273       36.4868995178  SOLV      7614            0.0000000000
     22956      7625  TIP3      H2             15.3419206346      -15.2959623122       35.4614108305  SOLV      7614            0.0000000000
     22957      7626  TIP3      OH2            11.8022238554      -23.8196906683       20.1660287234  SOLV      7615            0.0000000000
     22958      7626  TIP3      H1             12.3519474677      -24.1153737617       20.9154848283  SOLV      7615            0.0000000000
     22959      7626  TIP3      H2             12.4875173567      -23.7432659752       19.4681995523  SOLV      7615            0.0000000000
     22960      7627  TIP3      OH2            17.3169833542      -19.3059735313       36.3188843342  SOLV      7616            0.0000000000
     22961      7627  TIP3      H1             17.1282774088      -19.0957849365       35.3802966838  SOLV      7616            0.0000000000
     22962      7627  TIP3      H2             17.3884933269      -20.2682455895       36.2945493443  SOLV      7616            0.0000000000
     22963      7628  TIP3      OH2            16.9034048756      -21.6152621649       18.2277576125  SOLV      7617            0.0000000000
     22964      7628  TIP3      H1             16.4221393370      -21.9209171508       19.0132296371  SOLV      7617            0.0000000000
     22965      7628  TIP3      H2             17.0994146576      -22.4898672255       17.8345460944  SOLV      7617            0.0000000000
     22966      7629  TIP3      OH2            13.8144227525      -24.6765468717       22.3261049475  SOLV      7618            0.0000000000
     22967      7629  TIP3      H1             13.5713085346      -25.0416501103       23.1955464780  SOLV      7618            0.0000000000
     22968      7629  TIP3      H2             14.2004987493      -25.4581742540       21.8772529091  SOLV      7618            0.0000000000
     22969      7630  TIP3      OH2            15.9296840031      -24.0171074336       34.2432951674  SOLV      7619            0.0000000000
     22970      7630  TIP3      H1             15.2365433857      -23.3301560647       34.3948677509  SOLV      7619            0.0000000000
     22971      7630  TIP3      H2             16.6123652269      -23.4931141161       33.7546210573  SOLV      7619            0.0000000000
     22972      7631  TIP3      OH2            14.8567541136      -26.7400482250       20.7593370176  SOLV      7620            0.0000000000
     22973      7631  TIP3      H1             14.6436723305      -26.6824293660       19.8070619990  SOLV      7620            0.0000000000
     22974      7631  TIP3      H2             15.8365230739      -26.7672659388       20.7207619319  SOLV      7620            0.0000000000
     22975      7632  TIP3      OH2            23.0122020367      -23.5143971932       17.4466564202  SOLV      7621            0.0000000000
     22976      7632  TIP3      H1             22.8418407984      -23.9032784680       16.5648604165  SOLV      7621            0.0000000000
     22977      7632  TIP3      H2             22.6874766780      -22.5969439102       17.2775024619  SOLV      7621            0.0000000000
     22978      7633  TIP3      OH2            17.9540629618      -22.8885877359       32.8714534891  SOLV      7622            0.0000000000
     22979      7633  TIP3      H1             18.6347494265      -23.2313586640       32.2714612861  SOLV      7622            0.0000000000
     22980      7633  TIP3      H2             17.5276431068      -22.1951403291       32.3300050167  SOLV      7622            0.0000000000
     22981      7634  TIP3      OH2            13.0313523664      -16.2213836865       19.7995129877  SOLV      7623            0.0000000000
     22982      7634  TIP3      H1             13.5858602596      -15.4420686741       19.9078115026  SOLV      7623            0.0000000000
     22983      7634  TIP3      H2             12.5115737873      -15.9494238266       19.0236124198  SOLV      7623            0.0000000000
     22984      7635  TIP3      OH2             7.7227546281      -22.3008180004       21.9068537776  SOLV      7624            0.0000000000
     22985      7635  TIP3      H1              8.6823222942      -22.1125326573       21.8101002415  SOLV      7624            0.0000000000
     22986      7635  TIP3      H2              7.6667148497      -23.2057643863       21.5373686639  SOLV      7624            0.0000000000
     22987      7636  TIP3      OH2             6.9412216359      -16.2347878761       26.1430712411  SOLV      7625            0.0000000000
     22988      7636  TIP3      H1              6.2602325527      -16.8257735019       25.7538836617  SOLV      7625            0.0000000000
     22989      7636  TIP3      H2              7.3558522280      -16.8398466180       26.7947489118  SOLV      7625            0.0000000000
     22990      7637  TIP3      OH2             8.2697681139      -17.8078957803       27.9940751348  SOLV      7626            0.0000000000
     22991      7637  TIP3      H1              8.1262571726      -18.4636450224       28.7014508590  SOLV      7626            0.0000000000
     22992      7637  TIP3      H2              8.7764559479      -17.1438215952       28.4979443159  SOLV      7626            0.0000000000
     22993      7638  TIP3      OH2            25.6179420264      -13.8667713068       25.9437077197  SOLV      7627            0.0000000000
     22994      7638  TIP3      H1             25.6587387711      -13.6178799655       26.8935781262  SOLV      7627            0.0000000000
     22995      7638  TIP3      H2             25.8139788169      -13.0186319953       25.5235004019  SOLV      7627            0.0000000000
     22996      7639  TIP3      OH2            25.6609893495      -13.4127136061       28.6432021435  SOLV      7628            0.0000000000
     22997      7639  TIP3      H1             25.2283437661      -14.2922455331       28.7666359206  SOLV      7628            0.0000000000
     22998      7639  TIP3      H2             26.4836127124      -13.5393356423       29.1682986446  SOLV      7628            0.0000000000
     22999      7640  TIP3      OH2            24.3809942596      -21.5840247735       20.6682564398  SOLV      7629            0.0000000000
     23000      7640  TIP3      H1             25.0453731085      -20.9278660240       20.3702152187  SOLV      7629            0.0000000000
     23001      7640  TIP3      H2             24.8106282129      -21.9274908378       21.4846558765  SOLV      7629            0.0000000000
     23002      7641  TIP3      OH2            25.6161299814      -22.8473667768       22.7408937837  SOLV      7630            0.0000000000
     23003      7641  TIP3      H1             24.9952534092      -23.2909713479       23.3604758104  SOLV      7630            0.0000000000
     23004      7641  TIP3      H2             26.2931030496      -22.4745392305       23.3327752291  SOLV      7630            0.0000000000
     23005      7642  TIP3      OH2            26.0139325107      -19.2581417683       26.9356182776  SOLV      7631            0.0000000000
     23006      7642  TIP3      H1             26.7444519427      -19.6506192682       26.4411390333  SOLV      7631            0.0000000000
     23007      7642  TIP3      H2             25.8029226869      -18.4791601691       26.4035783191  SOLV      7631            0.0000000000
     23008      7643  TIP3      OH2            24.5460311479      -15.8906609232       28.8768892817  SOLV      7632            0.0000000000
     23009      7643  TIP3      H1             24.1182434858      -16.0938729156       29.7175316564  SOLV      7632            0.0000000000
     23010      7643  TIP3      H2             24.1877558065      -16.5912972082       28.3024800649  SOLV      7632            0.0000000000
     23011      7644  TIP3      OH2            25.0301204851      -23.8697352530       19.2547284750  SOLV      7633            0.0000000000
     23012      7644  TIP3      H1             24.3398820784      -23.8086784807       18.5571712807  SOLV      7633            0.0000000000
     23013      7644  TIP3      H2             24.7737594121      -23.0957701201       19.7992496516  SOLV      7633            0.0000000000
     23014      7645  TIP3      OH2            23.7548690811      -27.2811741117       18.7653654245  SOLV      7634            0.0000000000
     23015      7645  TIP3      H1             23.5317452782      -26.5752916216       18.1476941363  SOLV      7634            0.0000000000
     23016      7645  TIP3      H2             23.3174063594      -28.0327341873       18.3439168537  SOLV      7634            0.0000000000
     23017      7646  TIP3      OH2            23.7732865080      -24.3588269427       24.1609256075  SOLV      7635            0.0000000000
     23018      7646  TIP3      H1             23.7834018163      -25.3277606871       24.0945045530  SOLV      7635            0.0000000000
     23019      7646  TIP3      H2             23.5234338054      -24.2229661012       25.1055379259  SOLV      7635            0.0000000000
     23020      7647  TIP3      OH2            10.0693203560      -23.5221918531       31.5368663988  SOLV      7636            0.0000000000
     23021      7647  TIP3      H1             10.0835825245      -23.9039694888       30.6365128383  SOLV      7636            0.0000000000
     23022      7647  TIP3      H2             11.0338286272      -23.4876025485       31.7412279711  SOLV      7636            0.0000000000
     23023      7648  TIP3      OH2            23.8510030405      -27.2231800590       23.0665722292  SOLV      7637            0.0000000000
     23024      7648  TIP3      H1             24.1891357369      -28.1283612626       23.1235990766  SOLV      7637            0.0000000000
     23025      7648  TIP3      H2             24.4581438079      -26.8311100096       22.4079158501  SOLV      7637            0.0000000000
     23026      7649  TIP3      OH2             9.9378454018      -27.3133374928       32.1834748248  SOLV      7638            0.0000000000
     23027      7649  TIP3      H1             10.5091110754      -27.1004238309       31.4158790283  SOLV      7638            0.0000000000
     23028      7649  TIP3      H2             10.1562398631      -26.6001540629       32.8006654559  SOLV      7638            0.0000000000
     23029      7650  TIP3      OH2            21.2832438010      -15.0221950671       22.5332911448  SOLV      7639            0.0000000000
     23030      7650  TIP3      H1             21.8333869124      -15.0822749240       21.7235782171  SOLV      7639            0.0000000000
     23031      7650  TIP3      H2             21.7828651332      -14.3808125051       23.0686558957  SOLV      7639            0.0000000000
     23032      7651  TIP3      OH2            12.4126940014      -17.0369319821       36.0195009097  SOLV      7640            0.0000000000
     23033      7651  TIP3      H1             11.4729985728      -17.2001745051       35.8414743750  SOLV      7640            0.0000000000
     23034      7651  TIP3      H2             12.4535384330      -17.1707361963       36.9825443591  SOLV      7640            0.0000000000
     23035      7652  TIP3      OH2            14.1496770241      -16.6509862661       31.7957054392  SOLV      7641            0.0000000000
     23036      7652  TIP3      H1             13.6687918671      -15.8775987605       31.4316200061  SOLV      7641            0.0000000000
     23037      7652  TIP3      H2             15.0144899715      -16.4900858096       31.3639221053  SOLV      7641            0.0000000000
     23038      7653  TIP3      OH2            18.4727138599      -14.3076437238       33.0511401292  SOLV      7642            0.0000000000
     23039      7653  TIP3      H1             18.8787483975      -14.2267089020       33.9412315812  SOLV      7642            0.0000000000
     23040      7653  TIP3      H2             19.0870965536      -13.7454049873       32.5331315384  SOLV      7642            0.0000000000
     23041      7654  TIP3      OH2            20.3378941737      -12.6644043876       31.8795058431  SOLV      7643            0.0000000000
     23042      7654  TIP3      H1             21.0395250238      -13.1499482403       31.4015109841  SOLV      7643            0.0000000000
     23043      7654  TIP3      H2             20.8738542736      -12.1693123153       32.5302365171  SOLV      7643            0.0000000000
     23044      7655  TIP3      OH2            10.8935900035      -14.1260140927       32.1744299056  SOLV      7644            0.0000000000
     23045      7655  TIP3      H1              9.9811421886      -13.8334488715       31.9494563126  SOLV      7644            0.0000000000
     23046      7655  TIP3      H2             11.0921464660      -13.5193092737       32.9053335133  SOLV      7644            0.0000000000
     23047      7656  TIP3      OH2            13.2243553156      -14.3244993944       30.7114038170  SOLV      7645            0.0000000000
     23048      7656  TIP3      H1             12.3538997421      -14.2106306652       31.1551308926  SOLV      7645            0.0000000000
     23049      7656  TIP3      H2             13.0349907907      -13.9857021975       29.8145561718  SOLV      7645            0.0000000000
     23050      7657  TIP3      OH2            17.4399315396      -14.0249294151       28.6817601639  SOLV      7646            0.0000000000
     23051      7657  TIP3      H1             16.7327180921      -13.8185335791       28.0459738237  SOLV      7646            0.0000000000
     23052      7657  TIP3      H2             17.5648704265      -13.1623176782       29.1334657615  SOLV      7646            0.0000000000
     23053      7658  TIP3      OH2            20.0986506178      -14.6895853186       29.0191022732  SOLV      7647            0.0000000000
     23054      7658  TIP3      H1             19.1641068428      -14.4349731370       28.8976429997  SOLV      7647            0.0000000000
     23055      7658  TIP3      H2             20.5736796455      -13.9024531271       28.7079910333  SOLV      7647            0.0000000000
     23056      7659  TIP3      OH2            22.1598499448      -12.7729687280       28.2702484313  SOLV      7648            0.0000000000
     23057      7659  TIP3      H1             22.1095212569      -11.9254974814       27.7817096226  SOLV      7648            0.0000000000
     23058      7659  TIP3      H2             22.4904094791      -13.3934699188       27.5845578299  SOLV      7648            0.0000000000
     23059      7660  TIP3      OH2            10.0214726100      -16.1744537800       29.5324108885  SOLV      7649            0.0000000000
     23060      7660  TIP3      H1             10.2445070441      -16.4673241997       30.4409028762  SOLV      7649            0.0000000000
     23061      7660  TIP3      H2             10.7471224951      -16.6219143581       29.0429761930  SOLV      7649            0.0000000000
     23062      7661  TIP3      OH2            11.9810087170      -17.4537470511       28.1487783535  SOLV      7650            0.0000000000
     23063      7661  TIP3      H1             12.1085347250      -18.2861078710       28.6664144558  SOLV      7650            0.0000000000
     23064      7661  TIP3      H2             12.8957517999      -17.0986096125       28.1453979467  SOLV      7650            0.0000000000
     23065      7662  TIP3      OH2            14.6389094634      -16.5559647238       28.2215971667  SOLV      7651            0.0000000000
     23066      7662  TIP3      H1             14.9413191024      -17.4844240647       28.1699341876  SOLV      7651            0.0000000000
     23067      7662  TIP3      H2             15.1249458760      -16.2795714056       29.0236119581  SOLV      7651            0.0000000000
     23068      7663  TIP3      OH2             7.8919214469      -18.4049523544       23.4052648369  SOLV      7652            0.0000000000
     23069      7663  TIP3      H1              7.0158755644      -18.7134463405       23.1071378789  SOLV      7652            0.0000000000
     23070      7663  TIP3      H2              7.8062160140      -17.4564689143       23.1989192453  SOLV      7652            0.0000000000
     23071      7664  TIP3      OH2            15.8327210247      -16.7259091879       19.1087864235  SOLV      7653            0.0000000000
     23072      7664  TIP3      H1             16.2985749074      -15.9923280811       18.6930600261  SOLV      7653            0.0000000000
     23073      7664  TIP3      H2             14.9921537515      -16.7623440101       18.6315991394  SOLV      7653            0.0000000000
     23074      7665  TIP3      OH2            22.7731748489      -15.3845862734       20.2245249363  SOLV      7654            0.0000000000
     23075      7665  TIP3      H1             22.6371033341      -16.3564854782       20.1280811041  SOLV      7654            0.0000000000
     23076      7665  TIP3      H2             22.3403166103      -15.0654270707       19.4080438487  SOLV      7654            0.0000000000
     23077      7666  TIP3      OH2             8.6411645526      -18.2152005929       19.8396950127  SOLV      7655            0.0000000000
     23078      7666  TIP3      H1              8.5717928650      -18.0247339616       20.7876264239  SOLV      7655            0.0000000000
     23079      7666  TIP3      H2              9.5227989899      -18.6396282233       19.7679400663  SOLV      7655            0.0000000000
     23080      7667  TIP3      OH2            24.5472275370      -14.3231794980       32.1454288766  SOLV      7656            0.0000000000
     23081      7667  TIP3      H1             23.8165041728      -14.3014763255       31.4857256130  SOLV      7656            0.0000000000
     23082      7667  TIP3      H2             24.8832531782      -13.4220703464       32.0391796022  SOLV      7656            0.0000000000
     23083      7668  TIP3      OH2            27.2597037451      -25.0809026716       22.5641590872  SOLV      7657            0.0000000000
     23084      7668  TIP3      H1             26.6986811680      -24.2910357213       22.4979020325  SOLV      7657            0.0000000000
     23085      7668  TIP3      H2             26.8024673250      -25.6858217095       21.9623815939  SOLV      7657            0.0000000000
     23086      7669  TIP3      OH2            28.3582176778      -22.4483852414       23.6467350215  SOLV      7658            0.0000000000
     23087      7669  TIP3      H1             28.3588749177      -23.3688588999       23.9513190028  SOLV      7658            0.0000000000
     23088      7669  TIP3      H2             28.8533656075      -22.5327069632       22.8209278206  SOLV      7658            0.0000000000
     23089      7670  TIP3      OH2            36.7225397738      -12.8018501143       20.2312460579  SOLV      7659            0.0000000000
     23090      7670  TIP3      H1             37.5500757267      -12.9320592821       19.7179054166  SOLV      7659            0.0000000000
     23091      7670  TIP3      H2             37.0597368080      -12.2420247822       20.9519408155  SOLV      7659            0.0000000000
     23092      7671  TIP3      OH2            37.1971206185      -17.5123414216       17.9810637238  SOLV      7660            0.0000000000
     23093      7671  TIP3      H1             36.8955873275      -18.1585166358       17.3249313754  SOLV      7660            0.0000000000
     23094      7671  TIP3      H2             36.4213200824      -16.9352005851       18.0669749182  SOLV      7660            0.0000000000
     23095      7672  TIP3      OH2            26.3454385429      -19.8551387997       19.6390612428  SOLV      7661            0.0000000000
     23096      7672  TIP3      H1             26.0071391599      -19.5736007966       18.7681044085  SOLV      7661            0.0000000000
     23097      7672  TIP3      H2             26.7225084582      -19.0190455469       19.9866045876  SOLV      7661            0.0000000000
     23098      7673  TIP3      OH2            35.6036563528      -23.9798352958       15.1010963355  SOLV      7662            0.0000000000
     23099      7673  TIP3      H1             36.1475049230      -23.4040768908       15.6584503036  SOLV      7662            0.0000000000
     23100      7673  TIP3      H2             35.9065610507      -24.8566483471       15.3811163728  SOLV      7662            0.0000000000
     23101      7674  TIP3      OH2            35.4163134534      -15.0950525849       18.8036333524  SOLV      7663            0.0000000000
     23102      7674  TIP3      H1             35.6221433394      -14.2314164604       19.2050292419  SOLV      7663            0.0000000000
     23103      7674  TIP3      H2             34.8007971511      -14.8402408306       18.0941853508  SOLV      7663            0.0000000000
     23104      7675  TIP3      OH2            30.2356511348      -22.7379275830       19.6358613183  SOLV      7664            0.0000000000
     23105      7675  TIP3      H1             29.7487569401      -22.0577950220       19.1304809893  SOLV      7664            0.0000000000
     23106      7675  TIP3      H2             29.5429074527      -23.3954014552       19.7614570134  SOLV      7664            0.0000000000
     23107      7676  TIP3      OH2            26.6767307286      -16.5874023627       25.3294546538  SOLV      7665            0.0000000000
     23108      7676  TIP3      H1             27.5680350594      -16.3279958543       25.6106180017  SOLV      7665            0.0000000000
     23109      7676  TIP3      H2             26.1420237090      -15.9311688549       25.8042267233  SOLV      7665            0.0000000000
     23110      7677  TIP3      OH2            34.2090851238      -13.0698151169       16.8375464843  SOLV      7666            0.0000000000
     23111      7677  TIP3      H1             33.6785279667      -13.1899876890       16.0302421737  SOLV      7666            0.0000000000
     23112      7677  TIP3      H2             33.8945507008      -12.1952386662       17.1519558615  SOLV      7666            0.0000000000
     23113      7678  TIP3      OH2            28.5211297207      -14.6206425149       20.5993717166  SOLV      7667            0.0000000000
     23114      7678  TIP3      H1             28.6925964672      -14.6394813504       21.5489754993  SOLV      7667            0.0000000000
     23115      7678  TIP3      H2             28.0193820039      -15.4442675003       20.4646389836  SOLV      7667            0.0000000000
     23116      7679  TIP3      OH2            36.2089819465      -14.1233248930       13.2324995205  SOLV      7668            0.0000000000
     23117      7679  TIP3      H1             36.9327587706      -14.7057029449       12.9747261714  SOLV      7668            0.0000000000
     23118      7679  TIP3      H2             36.4511947289      -13.9213866845       14.1616336999  SOLV      7668            0.0000000000
     23119      7680  TIP3      OH2            36.6553431102      -13.6644202039       15.9115928300  SOLV      7669            0.0000000000
     23120      7680  TIP3      H1             35.7466216136      -13.4864109117       16.2521459866  SOLV      7669            0.0000000000
     23121      7680  TIP3      H2             37.0811714738      -13.9897653625       16.7157650014  SOLV      7669            0.0000000000
     23122      7681  TIP3      OH2            32.0507383154      -28.3078435091       16.7154911706  SOLV      7670            0.0000000000
     23123      7681  TIP3      H1             31.9303087260      -27.9974359992       17.6258684412  SOLV      7670            0.0000000000
     23124      7681  TIP3      H2             31.4675406119      -27.7024324779       16.2287138278  SOLV      7670            0.0000000000
     23125      7682  TIP3      OH2            27.5733572012      -27.9540471727       20.1966414312  SOLV      7671            0.0000000000
     23126      7682  TIP3      H1             27.8586711639      -27.4705804609       19.3906029546  SOLV      7671            0.0000000000
     23127      7682  TIP3      H2             26.8975639475      -27.3398582029       20.5219813817  SOLV      7671            0.0000000000
     23128      7683  TIP3      OH2            30.8783376734      -25.2516863572       17.3843218194  SOLV      7672            0.0000000000
     23129      7683  TIP3      H1             30.3652405315      -25.6652712130       16.6656702630  SOLV      7672            0.0000000000
     23130      7683  TIP3      H2             31.6747337147      -24.9733079600       16.9020639755  SOLV      7672            0.0000000000
     23131      7684  TIP3      OH2            33.4389600287      -19.9329025272       17.4893580294  SOLV      7673            0.0000000000
     23132      7684  TIP3      H1             32.9282065257      -20.7699494188       17.4443786740  SOLV      7673            0.0000000000
     23133      7684  TIP3      H2             33.4356364708      -19.7548790521       18.4563007210  SOLV      7673            0.0000000000
     23134      7685  TIP3      OH2            35.0508305406      -18.6302559178       15.7332443270  SOLV      7674            0.0000000000
     23135      7685  TIP3      H1             34.5892122173      -17.7657482143       15.8132947443  SOLV      7674            0.0000000000
     23136      7685  TIP3      H2             34.5233992934      -19.1697956123       16.3621316575  SOLV      7674            0.0000000000
     23137      7686  TIP3      OH2            31.5077310455      -16.8333146054       20.4869219404  SOLV      7675            0.0000000000
     23138      7686  TIP3      H1             31.5047126365      -15.9824459153       20.0029199100  SOLV      7675            0.0000000000
     23139      7686  TIP3      H2             30.6509337147      -17.1937079234       20.2413480670  SOLV      7675            0.0000000000
     23140      7687  TIP3      OH2            27.2824337101      -23.8105654531       17.5804329670  SOLV      7676            0.0000000000
     23141      7687  TIP3      H1             27.7099506150      -22.9465725396       17.7663219984  SOLV      7676            0.0000000000
     23142      7687  TIP3      H2             26.5480217187      -23.8028243428       18.2295442756  SOLV      7676            0.0000000000
     23143      7688  TIP3      OH2            33.1800756076      -19.2313953035       20.1158173342  SOLV      7677            0.0000000000
     23144      7688  TIP3      H1             32.7634829965      -18.3604170989       20.2539400234  SOLV      7677            0.0000000000
     23145      7688  TIP3      H2             32.6439430436      -19.7937753957       20.7154882627  SOLV      7677            0.0000000000
     23146      7689  TIP3      OH2            30.8692054551      -14.4592428722       19.0573573694  SOLV      7678            0.0000000000
     23147      7689  TIP3      H1             30.0023306684      -14.3292116645       19.4895243929  SOLV      7678            0.0000000000
     23148      7689  TIP3      H2             31.2180967226      -13.5353814713       19.0822409697  SOLV      7678            0.0000000000
     23149      7690  TIP3      OH2            28.5662659054      -15.2000148272       27.0094219352  SOLV      7679            0.0000000000
     23150      7690  TIP3      H1             28.2074549006      -15.7622620198       27.7169225203  SOLV      7679            0.0000000000
     23151      7690  TIP3      H2             28.9603335618      -14.4773812722       27.5411649364  SOLV      7679            0.0000000000
     23152      7691  TIP3      OH2            31.6181409285      -18.3970721814       13.6964329129  SOLV      7680            0.0000000000
     23153      7691  TIP3      H1             31.7716874215      -19.3233586512       13.4349785654  SOLV      7680            0.0000000000
     23154      7691  TIP3      H2             31.3769796252      -18.5006052558       14.6375671609  SOLV      7680            0.0000000000
     23155      7692  TIP3      OH2            31.0681450079      -18.3724904091       16.4261545348  SOLV      7681            0.0000000000
     23156      7692  TIP3      H1             31.8978480464      -18.7027350089       16.8163126201  SOLV      7681            0.0000000000
     23157      7692  TIP3      H2             31.1481202815      -17.3996663855       16.5461487757  SOLV      7681            0.0000000000
     23158      7693  TIP3      OH2            28.2564590083      -21.3410726514       18.3133821178  SOLV      7682            0.0000000000
     23159      7693  TIP3      H1             27.6275740886      -20.8907660280       18.9148074615  SOLV      7682            0.0000000000
     23160      7693  TIP3      H2             28.3985949183      -20.6398464798       17.6451526221  SOLV      7682            0.0000000000
     23161      7694  TIP3      OH2            33.7879273101      -16.2495965613       16.0077190340  SOLV      7683            0.0000000000
     23162      7694  TIP3      H1             32.8800905994      -16.0570439358       16.3203205171  SOLV      7683            0.0000000000
     23163      7694  TIP3      H2             33.8512336196      -15.6170516622       15.2751483465  SOLV      7683            0.0000000000
     23164      7695  TIP3      OH2            31.2051026210      -15.6270456571       16.5896500314  SOLV      7684            0.0000000000
     23165      7695  TIP3      H1             30.9067744466      -14.9448923870       15.9441297090  SOLV      7684            0.0000000000
     23166      7695  TIP3      H2             31.0549974852      -15.1576925521       17.4401212564  SOLV      7684            0.0000000000
     23167      7696  TIP3      OH2            28.3933076949      -19.3418499202       16.4007082335  SOLV      7685            0.0000000000
     23168      7696  TIP3      H1             29.1472741154      -18.7286385718       16.5159474380  SOLV      7685            0.0000000000
     23169      7696  TIP3      H2             28.8105125547      -19.9587611317       15.7582859325  SOLV      7685            0.0000000000
     23170      7697  TIP3      OH2            27.7202341730      -26.5210545071       17.8780465189  SOLV      7686            0.0000000000
     23171      7697  TIP3      H1             27.9355583450      -25.5691712268       17.8370906265  SOLV      7686            0.0000000000
     23172      7697  TIP3      H2             27.0537904076      -26.5913999478       17.1844316947  SOLV      7686            0.0000000000
     23173      7698  TIP3      OH2            27.0430131229      -17.2087402550       20.3070326179  SOLV      7687            0.0000000000
     23174      7698  TIP3      H1             26.4749190732      -16.8962279305       21.0269299827  SOLV      7687            0.0000000000
     23175      7698  TIP3      H2             26.6314508625      -16.7678698212       19.5226640623  SOLV      7687            0.0000000000
     23176      7699  TIP3      OH2            33.2892538254      -16.3791971784       12.8085575836  SOLV      7688            0.0000000000
     23177      7699  TIP3      H1             32.7732202811      -17.1461488479       13.1517990244  SOLV      7688            0.0000000000
     23178      7699  TIP3      H2             34.0415879593      -16.8286861427       12.3764453294  SOLV      7688            0.0000000000
     23179      7700  TIP3      OH2            29.7229723320      -21.2608949109       15.0446944054  SOLV      7689            0.0000000000
     23180      7700  TIP3      H1             30.2923178027      -21.5587162464       15.7772930639  SOLV      7689            0.0000000000
     23181      7700  TIP3      H2             30.3949133443      -21.1854425932       14.3300411545  SOLV      7689            0.0000000000
     23182      7701  TIP3      OH2            34.7847513138      -19.2822518320       13.0761204399  SOLV      7690            0.0000000000
     23183      7701  TIP3      H1             34.9304407166      -19.1022080387       14.0299510085  SOLV      7690            0.0000000000
     23184      7701  TIP3      H2             34.7393561769      -20.2604184320       13.0781800050  SOLV      7690            0.0000000000
     23185      7702  TIP3      OH2            31.7712181614      -22.1526559418       17.2564825346  SOLV      7691            0.0000000000
     23186      7702  TIP3      H1             31.4122563908      -22.6043200836       18.0436552727  SOLV      7691            0.0000000000
     23187      7702  TIP3      H2             32.1418248518      -22.9054807017       16.7501318912  SOLV      7691            0.0000000000
     23188      7703  TIP3      OH2            32.7854492081      -24.1535110166       15.6290525439  SOLV      7692            0.0000000000
     23189      7703  TIP3      H1             32.4828357891      -24.1753106442       14.6984892001  SOLV      7692            0.0000000000
     23190      7703  TIP3      H2             33.7504695388      -24.1364599875       15.4980876615  SOLV      7692            0.0000000000
     23191      7704  TIP3      OH2            30.8962673342      -13.6567051029       14.6784220774  SOLV      7693            0.0000000000
     23192      7704  TIP3      H1             31.8542894820      -13.6864829776       14.4990684954  SOLV      7693            0.0000000000
     23193      7704  TIP3      H2             30.6154297941      -13.0805956256       13.9415364286  SOLV      7693            0.0000000000
     23194      7705  TIP3      OH2            25.7228391474      -19.7731789486       16.8446862273  SOLV      7694            0.0000000000
     23195      7705  TIP3      H1             26.6577389673      -19.5389542289       16.6498068067  SOLV      7694            0.0000000000
     23196      7705  TIP3      H2             25.6574025645      -20.6615147830       16.4339557714  SOLV      7694            0.0000000000
     23197      7706  TIP3      OH2            24.8427339682      -13.7146987374       21.0406388210  SOLV      7695            0.0000000000
     23198      7706  TIP3      H1             24.1967242004      -14.3191919971       20.6182038298  SOLV      7695            0.0000000000
     23199      7706  TIP3      H2             25.2971681368      -14.3215460725       21.6607315105  SOLV      7695            0.0000000000
     23200      7707  TIP3      OH2            26.2456235318      -15.2533908813       22.8611167156  SOLV      7696            0.0000000000
     23201      7707  TIP3      H1             26.0703013809      -15.9029672912       23.5676014145  SOLV      7696            0.0000000000
     23202      7707  TIP3      H2             26.8061401570      -14.6251003082       23.3517038697  SOLV      7696            0.0000000000
     23203      7708  TIP3      OH2            28.8142493031      -11.5756621895       26.8590957350  SOLV      7697            0.0000000000
     23204      7708  TIP3      H1             27.9269571654      -11.1675395839       26.7418832141  SOLV      7697            0.0000000000
     23205      7708  TIP3      H2             28.8586963537      -11.6397501527       27.8215513769  SOLV      7697            0.0000000000
     23206      7709  TIP3      OH2            31.0048308721      -12.1618169946       25.3106585395  SOLV      7698            0.0000000000
     23207      7709  TIP3      H1             30.2800293843      -11.7912669393       25.8594840530  SOLV      7698            0.0000000000
     23208      7709  TIP3      H2             31.0148082212      -11.5244517215       24.5676911238  SOLV      7698            0.0000000000
     23209      7710  TIP3      OH2            28.2380035317      -13.6777404037       24.3434179378  SOLV      7699            0.0000000000
     23210      7710  TIP3      H1             27.9933842758      -13.9697660881       25.2396379969  SOLV      7699            0.0000000000
     23211      7710  TIP3      H2             29.1354808839      -13.3378270512       24.5076771917  SOLV      7699            0.0000000000
     23212      7711  TIP3      OH2            32.6504534875      -14.4658730295       23.1217215561  SOLV      7700            0.0000000000
     23213      7711  TIP3      H1             33.4910062646      -14.3140418256       22.6334026783  SOLV      7700            0.0000000000
     23214      7711  TIP3      H2             32.5435804488      -13.6229581337       23.5917951891  SOLV      7700            0.0000000000
     23215      7712  TIP3      OH2            25.8186120580      -15.8139868042       18.3672889498  SOLV      7701            0.0000000000
     23216      7712  TIP3      H1             24.9702958807      -16.1359721938       18.0094482540  SOLV      7701            0.0000000000
     23217      7712  TIP3      H2             25.7671883202      -14.8838892894       18.0803437011  SOLV      7701            0.0000000000
     23218      7713  TIP3      OH2            33.5725961897      -14.0325599045       14.1491414374  SOLV      7702            0.0000000000
     23219      7713  TIP3      H1             34.4329531874      -13.7924307228       13.7552153920  SOLV      7702            0.0000000000
     23220      7713  TIP3      H2             33.3391798079      -14.7854062142       13.5587703704  SOLV      7702            0.0000000000
     23221      7714  TIP3      OH2            26.5893356057      -15.6888625401       14.6839340586  SOLV      7703            0.0000000000
     23222      7714  TIP3      H1             26.6916887326      -15.4094588781       15.6032726416  SOLV      7703            0.0000000000
     23223      7714  TIP3      H2             27.4596168034      -16.1198819081       14.5033066623  SOLV      7703            0.0000000000
     23224      7715  TIP3      OH2           -19.5502212652       -9.7614078726       31.3013880156  SOLV      7704            0.0000000000
     23225      7715  TIP3      H1            -19.7703207517       -8.8169556402       31.3318237695  SOLV      7704            0.0000000000
     23226      7715  TIP3      H2            -20.4160391570      -10.1526354202       31.1047690442  SOLV      7704            0.0000000000
     23227      7716  TIP3      OH2           -17.4476744302       -7.0129745227       31.9227660447  SOLV      7705            0.0000000000
     23228      7716  TIP3      H1            -17.3494796934       -7.6160880352       32.6685573576  SOLV      7705            0.0000000000
     23229      7716  TIP3      H2            -17.3149201364       -6.1393758660       32.3524485965  SOLV      7705            0.0000000000
     23230      7717  TIP3      OH2           -21.0806316680       -2.0255617177       32.3178889598  SOLV      7706            0.0000000000
     23231      7717  TIP3      H1            -20.6266657911       -2.7972221888       31.9279487150  SOLV      7706            0.0000000000
     23232      7717  TIP3      H2            -20.8541202298       -2.0959718978       33.2688516735  SOLV      7706            0.0000000000
     23233      7718  TIP3      OH2           -21.2904792896       -7.6239786320       30.3850838564  SOLV      7707            0.0000000000
     23234      7718  TIP3      H1            -21.2419282770       -7.6291062460       29.4155794272  SOLV      7707            0.0000000000
     23235      7718  TIP3      H2            -21.5745466514       -6.6955589494       30.5431870272  SOLV      7707            0.0000000000
     23236      7719  TIP3      OH2           -17.2192453606       -4.5733518211       33.1544092709  SOLV      7708            0.0000000000
     23237      7719  TIP3      H1            -17.6973813492       -4.8786743224       33.9535920573  SOLV      7708            0.0000000000
     23238      7719  TIP3      H2            -17.2447519331       -3.6028029723       33.2168853520  SOLV      7708            0.0000000000
     23239      7720  TIP3      OH2           -19.7276444959       -3.8304163812       30.5041494110  SOLV      7709            0.0000000000
     23240      7720  TIP3      H1            -19.2515384838       -4.6740753854       30.3183363959  SOLV      7709            0.0000000000
     23241      7720  TIP3      H2            -19.0534297264       -3.1895611018       30.1794293353  SOLV      7709            0.0000000000
     23242      7721  TIP3      OH2           -18.4325671569       -6.0954026133       29.5821656270  SOLV      7710            0.0000000000
     23243      7721  TIP3      H1            -18.2795121442       -6.8368551111       28.9727538008  SOLV      7710            0.0000000000
     23244      7721  TIP3      H2            -18.0291430963       -6.4519346183       30.4072773481  SOLV      7710            0.0000000000
     23245      7722  TIP3      OH2           -21.4855481681      -11.2054214075       29.7123653533  SOLV      7711            0.0000000000
     23246      7722  TIP3      H1            -22.2067613339      -10.5964703751       29.4724774060  SOLV      7711            0.0000000000
     23247      7722  TIP3      H2            -20.9372504498      -11.2114490122       28.9053684614  SOLV      7711            0.0000000000
     23248      7723  TIP3      OH2           -21.9152946562      -13.4080466830       26.9678573275  SOLV      7712            0.0000000000
     23249      7723  TIP3      H1            -21.2766795174      -12.8642935360       27.4647129588  SOLV      7712            0.0000000000
     23250      7723  TIP3      H2            -21.3003356975      -13.9896712890       26.4731386830  SOLV      7712            0.0000000000
     23251      7724  TIP3      OH2           -17.8296416767      -10.5245410721       29.3879113492  SOLV      7713            0.0000000000
     23252      7724  TIP3      H1            -18.3840456239      -10.2757242359       30.1687331714  SOLV      7713            0.0000000000
     23253      7724  TIP3      H2            -16.9938977994      -10.7363916061       29.8519010601  SOLV      7713            0.0000000000
     23254      7725  TIP3      OH2           -19.6359528518      -11.8218726040       27.7745996113  SOLV      7714            0.0000000000
     23255      7725  TIP3      H1            -18.9784999418      -11.2654269246       28.2514353787  SOLV      7714            0.0000000000
     23256      7725  TIP3      H2            -19.3720160456      -11.6463120073       26.8369961834  SOLV      7714            0.0000000000
     23257      7726  TIP3      OH2           -22.1716083635       -5.0397823889       30.6205481316  SOLV      7715            0.0000000000
     23258      7726  TIP3      H1            -21.3343616162       -4.5316732584       30.6190772665  SOLV      7715            0.0000000000
     23259      7726  TIP3      H2            -22.7434605746       -4.4899811682       30.0665452226  SOLV      7715            0.0000000000
     23260      7727  TIP3      OH2           -14.4492488098      -19.4946026197       28.2652191973  SOLV      7716            0.0000000000
     23261      7727  TIP3      H1            -15.2329636523      -19.2720855729       28.8071678831  SOLV      7716            0.0000000000
     23262      7727  TIP3      H2            -14.3104185988      -18.6544658610       27.7760610950  SOLV      7716            0.0000000000
     23263      7728  TIP3      OH2           -16.4456060132       -5.7794393840       23.8317942398  SOLV      7717            0.0000000000
     23264      7728  TIP3      H1            -16.3782346825       -4.8249765698       23.6102644642  SOLV      7717            0.0000000000
     23265      7728  TIP3      H2            -15.5217260512       -6.0742856765       23.6885739890  SOLV      7717            0.0000000000
     23266      7729  TIP3      OH2           -23.3309817198       -2.6898229716       28.6043422804  SOLV      7718            0.0000000000
     23267      7729  TIP3      H1            -23.7257129257       -2.8787307820       27.7291695622  SOLV      7718            0.0000000000
     23268      7729  TIP3      H2            -23.6754423753       -1.8011771457       28.8066077025  SOLV      7718            0.0000000000
     23269      7730  TIP3      OH2           -21.3916426815       -3.5576936360       25.1354453080  SOLV      7719            0.0000000000
     23270      7730  TIP3      H1            -20.8796014327       -4.1327179544       24.5314861334  SOLV      7719            0.0000000000
     23271      7730  TIP3      H2            -20.8629164619       -3.5716288982       25.9495332823  SOLV      7719            0.0000000000
     23272      7731  TIP3      OH2           -20.7441956048       -3.0518290715       27.8399009856  SOLV      7720            0.0000000000
     23273      7731  TIP3      H1            -21.6763672548       -2.9922298713       28.1410781277  SOLV      7720            0.0000000000
     23274      7731  TIP3      H2            -20.3235910686       -3.4641660747       28.6119247212  SOLV      7720            0.0000000000
     23275      7732  TIP3      OH2           -18.8432821627      -11.4747023248       25.2416753396  SOLV      7721            0.0000000000
     23276      7732  TIP3      H1            -19.2151888042      -11.6425649121       24.3545153150  SOLV      7721            0.0000000000
     23277      7732  TIP3      H2            -18.0111719296      -11.0175267790       25.0054525973  SOLV      7721            0.0000000000
     23278      7733  TIP3      OH2           -21.6839228793      -17.6842197847       28.3629795466  SOLV      7722            0.0000000000
     23279      7733  TIP3      H1            -22.2967004779      -17.4676760752       29.0731755275  SOLV      7722            0.0000000000
     23280      7733  TIP3      H2            -22.0910108819      -18.5026302136       28.0077907629  SOLV      7722            0.0000000000
     23281      7734  TIP3      OH2           -20.3335560263      -13.4000187247       30.8720799249  SOLV      7723            0.0000000000
     23282      7734  TIP3      H1            -20.7132451330      -12.6278432329       30.4088759456  SOLV      7723            0.0000000000
     23283      7734  TIP3      H2            -19.6289213579      -13.6780723446       30.2658041871  SOLV      7723            0.0000000000
     23284      7735  TIP3      OH2           -25.1588146772      -17.8042305557       28.0467958362  SOLV      7724            0.0000000000
     23285      7735  TIP3      H1            -25.2898570823      -17.6018822553       28.9807479989  SOLV      7724            0.0000000000
     23286      7735  TIP3      H2            -25.8963239998      -17.2971799054       27.6479316460  SOLV      7724            0.0000000000
     23287      7736  TIP3      OH2           -26.4360984498      -15.0292524083       29.2323907330  SOLV      7725            0.0000000000
     23288      7736  TIP3      H1            -26.9710129321      -15.4122806038       28.5128913670  SOLV      7725            0.0000000000
     23289      7736  TIP3      H2            -25.7249984729      -14.6166647200       28.7060992624  SOLV      7725            0.0000000000
     23290      7737  TIP3      OH2           -23.8491824633       -9.6647080149       29.3940282128  SOLV      7726            0.0000000000
     23291      7737  TIP3      H1            -24.5260255881      -10.3663407412       29.2605300974  SOLV      7726            0.0000000000
     23292      7737  TIP3      H2            -23.7644255678       -9.6404360170       30.3632991231  SOLV      7726            0.0000000000
     23293      7738  TIP3      OH2           -19.2005473281      -16.5971052469       27.8350946558  SOLV      7727            0.0000000000
     23294      7738  TIP3      H1            -20.1422634314      -16.8089584766       28.0295901095  SOLV      7727            0.0000000000
     23295      7738  TIP3      H2            -19.1328254590      -15.6471479157       28.0641979352  SOLV      7727            0.0000000000
     23296      7739  TIP3      OH2           -18.4000254175      -14.1351426497       28.8941892739  SOLV      7728            0.0000000000
     23297      7739  TIP3      H1            -17.4506827501      -14.0210731299       29.1262353863  SOLV      7728            0.0000000000
     23298      7739  TIP3      H2            -18.5838141167      -13.3045185125       28.4168691174  SOLV      7728            0.0000000000
     23299      7740  TIP3      OH2           -22.3048838980       -8.2350080235       27.6068052460  SOLV      7729            0.0000000000
     23300      7740  TIP3      H1            -22.7583439506       -7.3582416283       27.5943892008  SOLV      7729            0.0000000000
     23301      7740  TIP3      H2            -22.8751165727       -8.7195858949       28.2381634253  SOLV      7729            0.0000000000
     23302      7741  TIP3      OH2           -14.1439382014      -13.2158835843       27.3515696063  SOLV      7730            0.0000000000
     23303      7741  TIP3      H1            -14.7594662666      -13.6115686815       26.6886672830  SOLV      7730            0.0000000000
     23304      7741  TIP3      H2            -14.1377809235      -12.3013783251       26.9944373405  SOLV      7730            0.0000000000
     23305      7742  TIP3      OH2           -17.0019755169       -5.0401789908       26.4664239049  SOLV      7731            0.0000000000
     23306      7742  TIP3      H1            -17.3957198418       -5.7560319207       26.9801430355  SOLV      7731            0.0000000000
     23307      7742  TIP3      H2            -16.9118137705       -5.4365591138       25.5782852334  SOLV      7731            0.0000000000
     23308      7743  TIP3      OH2           -30.3713819614      -13.3581888257       29.2872497210  SOLV      7732            0.0000000000
     23309      7743  TIP3      H1            -29.7794882325      -12.5850298138       29.4303033793  SOLV      7732            0.0000000000
     23310      7743  TIP3      H2            -30.9085749840      -13.2993094238       30.0833005804  SOLV      7732            0.0000000000
     23311      7744  TIP3      OH2           -26.8003364293       -3.9859542063       30.7184308722  SOLV      7733            0.0000000000
     23312      7744  TIP3      H1            -27.5813812340       -3.7113916924       31.2012416378  SOLV      7733            0.0000000000
     23313      7744  TIP3      H2            -26.2466796244       -3.1812265631       30.8005074816  SOLV      7733            0.0000000000
     23314      7745  TIP3      OH2           -19.4602453524       -7.7829667459       25.4765988840  SOLV      7734            0.0000000000
     23315      7745  TIP3      H1            -18.9846153412       -8.0076668486       26.3035292769  SOLV      7734            0.0000000000
     23316      7745  TIP3      H2            -20.3744277582       -7.9986096330       25.7121149074  SOLV      7734            0.0000000000
     23317      7746  TIP3      OH2           -16.1519831257       -3.0295567967       23.5881970560  SOLV      7735            0.0000000000
     23318      7746  TIP3      H1            -15.9029971355       -2.3420586557       22.9489037551  SOLV      7735            0.0000000000
     23319      7746  TIP3      H2            -16.9352933960       -2.5952005182       23.9870495165  SOLV      7735            0.0000000000
     23320      7747  TIP3      OH2           -17.8560492847       -8.2858293205       27.7417312046  SOLV      7736            0.0000000000
     23321      7747  TIP3      H1            -17.9455819204       -9.0544356860       28.3420589844  SOLV      7736            0.0000000000
     23322      7747  TIP3      H2            -16.9041484002       -8.3754139464       27.5148250640  SOLV      7736            0.0000000000
     23323      7748  TIP3      OH2           -25.8945452836       -7.9930270542       25.4514497761  SOLV      7737            0.0000000000
     23324      7748  TIP3      H1            -25.7618262404       -8.9235963112       25.1968266617  SOLV      7737            0.0000000000
     23325      7748  TIP3      H2            -26.1326285597       -8.0771874415       26.3939404935  SOLV      7737            0.0000000000
     23326      7749  TIP3      OH2           -26.4039023998       -7.9166865180       28.1933595223  SOLV      7738            0.0000000000
     23327      7749  TIP3      H1            -25.5466970229       -8.1365677294       28.5872830473  SOLV      7738            0.0000000000
     23328      7749  TIP3      H2            -26.3910887512       -6.9321929521       28.2358169689  SOLV      7738            0.0000000000
     23329      7750  TIP3      OH2           -29.1740106655      -11.0225271236       30.0300379590  SOLV      7739            0.0000000000
     23330      7750  TIP3      H1            -29.1569058155      -10.5692048158       30.8943711481  SOLV      7739            0.0000000000
     23331      7750  TIP3      H2            -29.1270420752      -10.2587703161       29.4209057484  SOLV      7739            0.0000000000
     23332      7751  TIP3      OH2           -18.2375444984      -16.8355329046       30.4608143774  SOLV      7740            0.0000000000
     23333      7751  TIP3      H1            -18.3558893836      -16.6718804087       29.5031196733  SOLV      7740            0.0000000000
     23334      7751  TIP3      H2            -18.3068319591      -15.9351451950       30.8153731059  SOLV      7740            0.0000000000
     23335      7752  TIP3      OH2           -23.7280864823       -5.9526603720       27.6524781965  SOLV      7741            0.0000000000
     23336      7752  TIP3      H1            -24.5970364297       -5.6611351931       27.9919080472  SOLV      7741            0.0000000000
     23337      7752  TIP3      H2            -23.6163160715       -5.3300232447       26.9155898653  SOLV      7741            0.0000000000
     23338      7753  TIP3      OH2           -26.2801437516       -5.2094647298       28.3305082504  SOLV      7742            0.0000000000
     23339      7753  TIP3      H1            -26.5617261646       -4.4990223757       27.7084722089  SOLV      7742            0.0000000000
     23340      7753  TIP3      H2            -26.4747907946       -4.7811972264       29.1941622682  SOLV      7742            0.0000000000
     23341      7754  TIP3      OH2           -29.1020000580       -8.8985514991       28.2780755283  SOLV      7743            0.0000000000
     23342      7754  TIP3      H1            -28.3945148693       -8.2285650159       28.3241901998  SOLV      7743            0.0000000000
     23343      7754  TIP3      H2            -28.7148348127       -9.4748991366       27.5834784709  SOLV      7743            0.0000000000
     23344      7755  TIP3      OH2           -16.6263368168       -1.6865945736       32.9977722835  SOLV      7744            0.0000000000
     23345      7755  TIP3      H1            -16.9774379032       -1.1615155344       32.2474759820  SOLV      7744            0.0000000000
     23346      7755  TIP3      H2            -15.6655401729       -1.5542701512       32.8720710971  SOLV      7744            0.0000000000
     23347      7756  TIP3      OH2           -24.2493446586       -5.9367024837       24.5829169777  SOLV      7745            0.0000000000
     23348      7756  TIP3      H1            -24.7652853058       -6.7126811920       24.8964413910  SOLV      7745            0.0000000000
     23349      7756  TIP3      H2            -23.5043699116       -6.3690203962       24.1240922172  SOLV      7745            0.0000000000
     23350      7757  TIP3      OH2           -19.9635860462       -5.5145176570       23.6920906576  SOLV      7746            0.0000000000
     23351      7757  TIP3      H1            -19.4419279606       -6.1324537621       24.2282641954  SOLV      7746            0.0000000000
     23352      7757  TIP3      H2            -19.4836178631       -5.5084361135       22.8384585813  SOLV      7746            0.0000000000
     23353      7758  TIP3      OH2           -27.8402024279      -10.7799094052       26.7755299775  SOLV      7747            0.0000000000
     23354      7758  TIP3      H1            -27.2786411326      -11.0356122710       27.5253201769  SOLV      7747            0.0000000000
     23355      7758  TIP3      H2            -27.1612262158      -10.7249656003       26.0640183864  SOLV      7747            0.0000000000
     23356      7759  TIP3      OH2           -22.5919787732       -8.7790911597       24.9256284225  SOLV      7748            0.0000000000
     23357      7759  TIP3      H1            -22.5846652328       -8.6618942245       25.8959882705  SOLV      7748            0.0000000000
     23358      7759  TIP3      H2            -22.6155928213       -9.7569106710       24.8534919664  SOLV      7748            0.0000000000
     23359      7760  TIP3      OH2           -25.6438996580      -11.7374086843       29.0292814384  SOLV      7749            0.0000000000
     23360      7760  TIP3      H1            -26.1076213733      -12.2633021016       29.6922001147  SOLV      7749            0.0000000000
     23361      7760  TIP3      H2            -25.2758716817      -12.4320955794       28.4433990502  SOLV      7749            0.0000000000
     23362      7761  TIP3      OH2           -24.6812752933      -13.7899826639       27.4503380315  SOLV      7750            0.0000000000
     23363      7761  TIP3      H1            -24.9455290542      -13.6885185091       26.5102723157  SOLV      7750            0.0000000000
     23364      7761  TIP3      H2            -23.7042521654      -13.7657385237       27.3583518165  SOLV      7750            0.0000000000
     23365      7762  TIP3      OH2           -16.5137651709      -10.5100780656       24.0962095621  SOLV      7751            0.0000000000
     23366      7762  TIP3      H1            -16.7021153336      -10.9143059653       23.2249324501  SOLV      7751            0.0000000000
     23367      7762  TIP3      H2            -16.8359763852       -9.5954253270       23.9070212729  SOLV      7751            0.0000000000
     23368      7763  TIP3      OH2           -26.5894395073       -3.1430575582       26.5463542767  SOLV      7752            0.0000000000
     23369      7763  TIP3      H1            -25.6414539699       -3.2395904371       26.3266009460  SOLV      7752            0.0000000000
     23370      7763  TIP3      H2            -26.8754650132       -2.6474928079       25.7491144453  SOLV      7752            0.0000000000
     23371      7764  TIP3      OH2           -31.8475713613       -9.3002897552       28.1093209869  SOLV      7753            0.0000000000
     23372      7764  TIP3      H1            -30.9257479803       -9.0891771187       28.3598176641  SOLV      7753            0.0000000000
     23373      7764  TIP3      H2            -31.8179532241      -10.2666054554       27.9953707825  SOLV      7753            0.0000000000
     23374      7765  TIP3      OH2           -14.0081182299       -0.6447989011       32.6886761076  SOLV      7754            0.0000000000
     23375      7765  TIP3      H1            -13.6518447663        0.0733208057       33.2249934823  SOLV      7754            0.0000000000
     23376      7765  TIP3      H2            -13.5507302263       -0.4941291726       31.8475134013  SOLV      7754            0.0000000000
     23377      7766  TIP3      OH2           -15.1267231452       -8.6283871595       27.3723001494  SOLV      7755            0.0000000000
     23378      7766  TIP3      H1            -14.4745229337       -7.9710203994       27.0569616257  SOLV      7755            0.0000000000
     23379      7766  TIP3      H2            -14.6745746122       -8.9850792816       28.1696848715  SOLV      7755            0.0000000000
     23380      7767  TIP3      OH2           -13.8746454477       -9.9441456747       29.4525537096  SOLV      7756            0.0000000000
     23381      7767  TIP3      H1            -14.5156103763      -10.3540383551       30.0725423089  SOLV      7756            0.0000000000
     23382      7767  TIP3      H2            -13.2264566900       -9.5448164683       30.0700770949  SOLV      7756            0.0000000000
     23383      7768  TIP3      OH2           -13.4485858844       -5.9671360504       33.6105670413  SOLV      7757            0.0000000000
     23384      7768  TIP3      H1            -12.7237169315       -6.5932285646       33.3685350419  SOLV      7757            0.0000000000
     23385      7768  TIP3      H2            -13.3785775537       -5.3251411209       32.8837673480  SOLV      7757            0.0000000000
     23386      7769  TIP3      OH2           -14.4657499722      -10.8563455069       25.8672121732  SOLV      7758            0.0000000000
     23387      7769  TIP3      H1            -15.1821395360      -10.8427614613       25.1917212266  SOLV      7758            0.0000000000
     23388      7769  TIP3      H2            -14.7623592701      -10.1071518379       26.4252222917  SOLV      7758            0.0000000000
     23389      7770  TIP3      OH2           -15.7547360596      -14.1370661218       25.3591254296  SOLV      7759            0.0000000000
     23390      7770  TIP3      H1            -16.2494898977      -13.7577189740       24.6238611722  SOLV      7759            0.0000000000
     23391      7770  TIP3      H2            -15.9882434528      -15.0858302309       25.2698563986  SOLV      7759            0.0000000000
     23392      7771  TIP3      OH2           -15.6903270523      -11.3864143739       30.9970774492  SOLV      7760            0.0000000000
     23393      7771  TIP3      H1            -15.7040037390      -12.3262888059       30.7377565550  SOLV      7760            0.0000000000
     23394      7771  TIP3      H2            -15.8538961362      -11.4404567661       31.9598232610  SOLV      7760            0.0000000000
     23395      7772  TIP3      OH2           -16.3242441904      -16.8095886754       25.1916057003  SOLV      7761            0.0000000000
     23396      7772  TIP3      H1            -15.6184775505      -17.0991185931       25.8025358368  SOLV      7761            0.0000000000
     23397      7772  TIP3      H2            -17.0735937825      -17.3875887919       25.4062808984  SOLV      7761            0.0000000000
     23398      7773  TIP3      OH2           -15.7213411043      -14.0127532562       29.6227712984  SOLV      7762            0.0000000000
     23399      7773  TIP3      H1            -15.4433411712      -14.9391679103       29.7970201581  SOLV      7762            0.0000000000
     23400      7773  TIP3      H2            -15.0811013933      -13.7700193409       28.9261937515  SOLV      7762            0.0000000000
     23401      7774  TIP3      OH2           -14.8027647929      -16.5934398849       29.9284367300  SOLV      7763            0.0000000000
     23402      7774  TIP3      H1            -14.1396582384      -16.6510277568       30.6489446499  SOLV      7763            0.0000000000
     23403      7774  TIP3      H2            -15.3101692395      -17.4114274197       30.0808238608  SOLV      7763            0.0000000000
     23404      7775  TIP3      OH2           -13.9043681426      -17.3880677647       26.5484332068  SOLV      7764            0.0000000000
     23405      7775  TIP3      H1            -13.5017750883      -18.0466790583       25.9461032976  SOLV      7764            0.0000000000
     23406      7775  TIP3      H2            -13.2508204545      -16.6618033438       26.5343104917  SOLV      7764            0.0000000000
     23407      7776  TIP3      OH2           -18.1404616934       -1.9874841181       29.2706367322  SOLV      7765            0.0000000000
     23408      7776  TIP3      H1            -17.7583999363       -2.1673961681       28.3854021148  SOLV      7765            0.0000000000
     23409      7776  TIP3      H2            -17.5204994633       -1.3295622659       29.6042403004  SOLV      7765            0.0000000000
     23410      7777  TIP3      OH2           -17.5420686308        0.3413118235       34.6570138591  SOLV      7766            0.0000000000
     23411      7777  TIP3      H1            -17.4079834292        1.0366857143       33.9790780768  SOLV      7766            0.0000000000
     23412      7777  TIP3      H2            -17.3186123106       -0.4710014509       34.1477863204  SOLV      7766            0.0000000000
     23413      7778  TIP3      OH2           -12.8374994087      -16.8523494255       31.7290014157  SOLV      7767            0.0000000000
     23414      7778  TIP3      H1            -11.9671648596      -16.9974477024       31.3265387265  SOLV      7767            0.0000000000
     23415      7778  TIP3      H2            -12.7620478901      -15.9173723693       32.0307364730  SOLV      7767            0.0000000000
     23416      7779  TIP3      OH2           -16.4609240844      -18.8614085885       30.1648693548  SOLV      7768            0.0000000000
     23417      7779  TIP3      H1            -17.0918358990      -18.1205798512       30.3189436498  SOLV      7768            0.0000000000
     23418      7779  TIP3      H2            -16.9149331954      -19.5781184070       30.6262746719  SOLV      7768            0.0000000000
     23419      7780  TIP3      OH2           -31.2135546922       -5.2341956565       29.3828873020  SOLV      7769            0.0000000000
     23420      7780  TIP3      H1            -32.0379077941       -5.6737554101       29.6610405465  SOLV      7769            0.0000000000
     23421      7780  TIP3      H2            -31.5394901758       -4.3330008146       29.1505017886  SOLV      7769            0.0000000000
     23422      7781  TIP3      OH2           -23.9549160431       -3.5592492703       25.9618197690  SOLV      7770            0.0000000000
     23423      7781  TIP3      H1            -23.0622429463       -3.3320042398       25.6058903085  SOLV      7770            0.0000000000
     23424      7781  TIP3      H2            -24.1888432589       -4.2419766270       25.2948725657  SOLV      7770            0.0000000000
     23425      7782  TIP3      OH2           -16.7558921643       -2.3612327172       26.9114316939  SOLV      7771            0.0000000000
     23426      7782  TIP3      H1            -16.8007776259       -3.3404259905       26.7934829644  SOLV      7771            0.0000000000
     23427      7782  TIP3      H2            -17.2179580043       -2.0603993859       26.1001225689  SOLV      7771            0.0000000000
     23428      7783  TIP3      OH2           -30.8175005139       -5.2181679254       26.5514235335  SOLV      7772            0.0000000000
     23429      7783  TIP3      H1            -30.7886320601       -5.3507074103       27.5188434555  SOLV      7772            0.0000000000
     23430      7783  TIP3      H2            -29.9725647839       -5.6531215671       26.2825165030  SOLV      7772            0.0000000000
     23431      7784  TIP3      OH2            -1.8212657942       -7.1850372282       26.3443014778  SOLV      7773            0.0000000000
     23432      7784  TIP3      H1             -2.1407353817       -6.2841550384       26.1294955542  SOLV      7773            0.0000000000
     23433      7784  TIP3      H2             -2.5740041601       -7.7111618234       26.0209949888  SOLV      7773            0.0000000000
     23434      7785  TIP3      OH2            -1.8734972131       -7.1664995779       30.2055755358  SOLV      7774            0.0000000000
     23435      7785  TIP3      H1             -1.4330535628       -7.3781397886       31.0519604153  SOLV      7774            0.0000000000
     23436      7785  TIP3      H2             -2.2626350977       -8.0232838088       29.9636815657  SOLV      7774            0.0000000000
     23437      7786  TIP3      OH2            -8.8527508585       -8.1965906556       33.5891064292  SOLV      7775            0.0000000000
     23438      7786  TIP3      H1             -8.6901063200       -8.2832144850       34.5466802711  SOLV      7775            0.0000000000
     23439      7786  TIP3      H2             -7.9553033466       -8.0230260603       33.2548841052  SOLV      7775            0.0000000000
     23440      7787  TIP3      OH2             0.6384079359       -4.1609623215       27.0548315127  SOLV      7776            0.0000000000
     23441      7787  TIP3      H1              0.4540036515       -4.8358200919       27.7210959867  SOLV      7776            0.0000000000
     23442      7787  TIP3      H2              0.9502941058       -3.4141654205       27.5935997811  SOLV      7776            0.0000000000
     23443      7788  TIP3      OH2            -9.0157062408       -4.0759558808       31.2755612079  SOLV      7777            0.0000000000
     23444      7788  TIP3      H1             -9.1259012562       -5.0528704946       31.1968631193  SOLV      7777            0.0000000000
     23445      7788  TIP3      H2             -8.0890439133       -4.0050934326       30.9703593147  SOLV      7777            0.0000000000
     23446      7789  TIP3      OH2           -11.9962212128      -12.0446476500       28.7800576232  SOLV      7778            0.0000000000
     23447      7789  TIP3      H1            -12.5160756185      -11.2670608195       29.0497967389  SOLV      7778            0.0000000000
     23448      7789  TIP3      H2            -12.7119712438      -12.6625486306       28.5602194051  SOLV      7778            0.0000000000
     23449      7790  TIP3      OH2           -11.5268243590       -9.1572962546       30.6391912819  SOLV      7779            0.0000000000
     23450      7790  TIP3      H1            -11.0712192860       -9.9607471131       30.9858765373  SOLV      7779            0.0000000000
     23451      7790  TIP3      H2            -10.9845413874       -8.9426719383       29.8732983573  SOLV      7779            0.0000000000
     23452      7791  TIP3      OH2            -2.8286783754        0.4669786787       27.2297387717  SOLV      7780            0.0000000000
     23453      7791  TIP3      H1             -2.4508736645       -0.2408679853       26.6663745479  SOLV      7780            0.0000000000
     23454      7791  TIP3      H2             -2.9692623810       -0.0050015811       28.0590064483  SOLV      7780            0.0000000000
     23455      7792  TIP3      OH2            -3.8655950773       -4.9324228317       30.7286564346  SOLV      7781            0.0000000000
     23456      7792  TIP3      H1             -3.4752034991       -5.6954824332       30.2671755401  SOLV      7781            0.0000000000
     23457      7792  TIP3      H2             -3.0301741038       -4.4663641287       30.9509535969  SOLV      7781            0.0000000000
     23458      7793  TIP3      OH2             6.3146772733      -11.7406754017       30.6704880745  SOLV      7782            0.0000000000
     23459      7793  TIP3      H1              6.6024530854      -10.9296017276       31.1383932187  SOLV      7782            0.0000000000
     23460      7793  TIP3      H2              6.5251230960      -11.5167582297       29.7478981567  SOLV      7782            0.0000000000
     23461      7794  TIP3      OH2             0.3046277757       -9.9637799857       30.9471129046  SOLV      7783            0.0000000000
     23462      7794  TIP3      H1              0.7085003572      -10.8320825781       31.1383812451  SOLV      7783            0.0000000000
     23463      7794  TIP3      H2             -0.0576243092      -10.1289815649       30.0547032361  SOLV      7783            0.0000000000
     23464      7795  TIP3      OH2            -6.2252743530      -13.3593978847       30.5910786699  SOLV      7784            0.0000000000
     23465      7795  TIP3      H1             -6.4612499706      -12.6436380602       29.9618758751  SOLV      7784            0.0000000000
     23466      7795  TIP3      H2             -6.7594226480      -14.0902071142       30.2068843319  SOLV      7784            0.0000000000
     23467      7796  TIP3      OH2             0.6407483794      -12.4094474808       26.8458371865  SOLV      7785            0.0000000000
     23468      7796  TIP3      H1              1.3465904984      -12.5619020213       27.5161401902  SOLV      7785            0.0000000000
     23469      7796  TIP3      H2              1.1805020930      -12.0632582673       26.1104351014  SOLV      7785            0.0000000000
     23470      7797  TIP3      OH2           -10.0057055512      -11.2255836152       31.4767684943  SOLV      7786            0.0000000000
     23471      7797  TIP3      H1             -9.2071442450      -11.3569075397       32.0253063197  SOLV      7786            0.0000000000
     23472      7797  TIP3      H2             -9.8161810636      -11.8403793042       30.7369665164  SOLV      7786            0.0000000000
     23473      7798  TIP3      OH2            -5.6262834600       -9.3504340661       29.6860628283  SOLV      7787            0.0000000000
     23474      7798  TIP3      H1             -4.6798978204       -9.5895627240       29.7795433271  SOLV      7787            0.0000000000
     23475      7798  TIP3      H2             -6.0108925118      -10.1890493513       29.3481003328  SOLV      7787            0.0000000000
     23476      7799  TIP3      OH2             7.0095920851       -9.6822291746       32.4202128382  SOLV      7788            0.0000000000
     23477      7799  TIP3      H1              6.1591104663       -9.2159553441       32.2748127153  SOLV      7788            0.0000000000
     23478      7799  TIP3      H2              7.3595038923       -9.2029602046       33.1972953487  SOLV      7788            0.0000000000
     23479      7800  TIP3      OH2            -2.9584695027       -4.9950201463       25.0446346522  SOLV      7789            0.0000000000
     23480      7800  TIP3      H1             -3.3659431064       -5.1136659215       24.1722490455  SOLV      7789            0.0000000000
     23481      7800  TIP3      H2             -3.4160178986       -4.1853409883       25.3557604711  SOLV      7789            0.0000000000
     23482      7801  TIP3      OH2            -5.2422396920       -5.7469985729       32.9593349847  SOLV      7790            0.0000000000
     23483      7801  TIP3      H1             -5.8215057226       -5.0463940240       33.3134828383  SOLV      7790            0.0000000000
     23484      7801  TIP3      H2             -4.8334499446       -5.3093873614       32.1806501543  SOLV      7790            0.0000000000
     23485      7802  TIP3      OH2             2.6825492891      -12.3646499995       28.6378052417  SOLV      7791            0.0000000000
     23486      7802  TIP3      H1              2.4200858230      -12.7418038031       29.4905091743  SOLV      7791            0.0000000000
     23487      7802  TIP3      H2              3.1751898985      -11.5669397233       28.9145352211  SOLV      7791            0.0000000000
     23488      7803  TIP3      OH2            -7.6541354108      -12.1329882923       32.6472701250  SOLV      7792            0.0000000000
     23489      7803  TIP3      H1             -6.9397686274      -11.5456579321       32.9659230052  SOLV      7792            0.0000000000
     23490      7803  TIP3      H2             -7.1995043426      -12.6089947021       31.9237878866  SOLV      7792            0.0000000000
     23491      7804  TIP3      OH2            -7.1150345180       -3.8190658822       34.0138379049  SOLV      7793            0.0000000000
     23492      7804  TIP3      H1             -7.3567663946       -2.9486813222       33.6369242317  SOLV      7793            0.0000000000
     23493      7804  TIP3      H2             -7.9210990506       -4.3382508691       33.8540361292  SOLV      7793            0.0000000000
     23494      7805  TIP3      OH2           -13.1422466481       -6.8931629944       26.2620502003  SOLV      7794            0.0000000000
     23495      7805  TIP3      H1            -13.5430358186       -6.6341534795       25.4097522797  SOLV      7794            0.0000000000
     23496      7805  TIP3      H2            -12.8216260141       -6.0334369064       26.5996645411  SOLV      7794            0.0000000000
     23497      7806  TIP3      OH2             1.2875634045       -1.7050809795       28.6643418486  SOLV      7795            0.0000000000
     23498      7806  TIP3      H1              0.3912734861       -1.8050883500       29.0597389428  SOLV      7795            0.0000000000
     23499      7806  TIP3      H2              1.1919666893       -0.8448001153       28.2098001072  SOLV      7795            0.0000000000
     23500      7807  TIP3      OH2             4.1691562165      -12.6618174279       32.2607762427  SOLV      7796            0.0000000000
     23501      7807  TIP3      H1              3.3201926603      -12.4690229598       31.8318473634  SOLV      7796            0.0000000000
     23502      7807  TIP3      H2              4.8221383542      -12.3560471220       31.5966115275  SOLV      7796            0.0000000000
     23503      7808  TIP3      OH2            -2.6247308914      -16.4139635024       32.0677459423  SOLV      7797            0.0000000000
     23504      7808  TIP3      H1             -2.7668795633      -17.3676719194       32.2679432218  SOLV      7797            0.0000000000
     23505      7808  TIP3      H2             -3.4443078825      -16.0501879924       32.4739739974  SOLV      7797            0.0000000000
     23506      7809  TIP3      OH2            -1.7332072314       -1.2821116790       25.3682709786  SOLV      7798            0.0000000000
     23507      7809  TIP3      H1             -1.2349643664       -2.1186616528       25.2094647551  SOLV      7798            0.0000000000
     23508      7809  TIP3      H2             -1.0828652782       -0.6438859748       24.9923578183  SOLV      7798            0.0000000000
     23509      7810  TIP3      OH2            -0.2758626935       -3.4415759645       24.5548844325  SOLV      7799            0.0000000000
     23510      7810  TIP3      H1             -0.6776673683       -4.2384995139       24.1864486962  SOLV      7799            0.0000000000
     23511      7810  TIP3      H2              0.1223368898       -3.7848446115       25.3856127482  SOLV      7799            0.0000000000
     23512      7811  TIP3      OH2             3.5241305796       -2.6103355673       32.1074947055  SOLV      7800            0.0000000000
     23513      7811  TIP3      H1              3.4195670129       -3.4038748996       31.5388603153  SOLV      7800            0.0000000000
     23514      7811  TIP3      H2              3.3688602495       -1.8818202485       31.4725713275  SOLV      7800            0.0000000000
     23515      7812  TIP3      OH2            -3.5213681214       -8.6859702607       24.7332325959  SOLV      7801            0.0000000000
     23516      7812  TIP3      H1             -4.3225285378       -8.1491715188       24.5542956183  SOLV      7801            0.0000000000
     23517      7812  TIP3      H2             -3.0941153940       -8.6972805462       23.8593781108  SOLV      7801            0.0000000000
     23518      7813  TIP3      OH2            -3.9458756789      -10.8164057380       21.8186904231  SOLV      7802            0.0000000000
     23519      7813  TIP3      H1             -3.2953023457      -10.2748488790       22.3009678223  SOLV      7802            0.0000000000
     23520      7813  TIP3      H2             -3.3481949644      -11.4366982762       21.3527448830  SOLV      7802            0.0000000000
     23521      7814  TIP3      OH2             5.4871849169       -6.2549790844       30.5736759493  SOLV      7803            0.0000000000
     23522      7814  TIP3      H1              4.6560840928       -5.7343529538       30.6273922642  SOLV      7803            0.0000000000
     23523      7814  TIP3      H2              5.8060136474       -5.9814599334       29.6867275766  SOLV      7803            0.0000000000
     23524      7815  TIP3      OH2            -0.0314654188       -7.8515206088       24.3898640185  SOLV      7804            0.0000000000
     23525      7815  TIP3      H1             -0.5851531018       -7.6160691419       25.1711029059  SOLV      7804            0.0000000000
     23526      7815  TIP3      H2              0.8138737649       -8.0751880731       24.8322055430  SOLV      7804            0.0000000000
     23527      7816  TIP3      OH2             2.2748968272       -7.7019530560       33.5218426554  SOLV      7805            0.0000000000
     23528      7816  TIP3      H1              2.3821270693       -6.8955901111       34.0776711581  SOLV      7805            0.0000000000
     23529      7816  TIP3      H2              1.4244256725       -7.5024250628       33.0844441091  SOLV      7805            0.0000000000
     23530      7817  TIP3      OH2            -7.7374307979       -7.9068332284       28.5742392581  SOLV      7806            0.0000000000
     23531      7817  TIP3      H1             -8.1469275114       -8.4862680496       27.8959216681  SOLV      7806            0.0000000000
     23532      7817  TIP3      H2             -6.9809868286       -8.4498532808       28.8795992748  SOLV      7806            0.0000000000
     23533      7818  TIP3      OH2            -6.4753301494       -3.8022923569       30.0792667484  SOLV      7807            0.0000000000
     23534      7818  TIP3      H1             -6.6681541501       -4.0867888854       29.1696446703  SOLV      7807            0.0000000000
     23535      7818  TIP3      H2             -5.5865472402       -4.1847365716       30.2301532135  SOLV      7807            0.0000000000
     23536      7819  TIP3      OH2            -6.2526704387       -8.2001826083       32.1784704722  SOLV      7808            0.0000000000
     23537      7819  TIP3      H1             -6.0365060544       -8.4296871608       31.2492224925  SOLV      7808            0.0000000000
     23538      7819  TIP3      H2             -5.8632564891       -7.3060653161       32.2756213421  SOLV      7808            0.0000000000
     23539      7820  TIP3      OH2            -1.1120135319       -1.7804051501       29.8934681648  SOLV      7809            0.0000000000
     23540      7820  TIP3      H1             -1.2413655318       -0.9889684945       30.4452371793  SOLV      7809            0.0000000000
     23541      7820  TIP3      H2             -1.2821596911       -2.5204597537       30.5094158218  SOLV      7809            0.0000000000
     23542      7821  TIP3      OH2            -4.8002081040       -2.6255483190       35.1257743115  SOLV      7810            0.0000000000
     23543      7821  TIP3      H1             -5.3528259834       -2.0121500338       35.6510226113  SOLV      7810            0.0000000000
     23544      7821  TIP3      H2             -5.4946510178       -3.2133551365       34.7739312403  SOLV      7810            0.0000000000
     23545      7822  TIP3      OH2            -1.6635496149       -9.2829332531       22.6788615706  SOLV      7811            0.0000000000
     23546      7822  TIP3      H1             -1.0832796414       -8.6562510106       23.1664665902  SOLV      7811            0.0000000000
     23547      7822  TIP3      H2             -1.3908450816       -9.0928004894       21.7467000817  SOLV      7811            0.0000000000
     23548      7823  TIP3      OH2            -4.1885501229       -2.5226975027       25.4739363043  SOLV      7812            0.0000000000
     23549      7823  TIP3      H1             -3.3629343854       -1.9992460315       25.4890352695  SOLV      7812            0.0000000000
     23550      7823  TIP3      H2             -4.7826626246       -1.9596362444       24.9605869834  SOLV      7812            0.0000000000
     23551      7824  TIP3      OH2            -6.8426344126       -0.9759927606       36.0176847334  SOLV      7813            0.0000000000
     23552      7824  TIP3      H1             -7.0774981913       -0.7967346038       35.0847707676  SOLV      7813            0.0000000000
     23553      7824  TIP3      H2             -7.7141757825       -1.2264373660       36.3938839266  SOLV      7813            0.0000000000
     23554      7825  TIP3      OH2             3.4973502078      -16.9138721555       23.1799248280  SOLV      7814            0.0000000000
     23555      7825  TIP3      H1              2.6824902149      -16.6807408604       23.6719233396  SOLV      7814            0.0000000000
     23556      7825  TIP3      H2              3.6643149066      -16.0788105348       22.6935124279  SOLV      7814            0.0000000000
     23557      7826  TIP3      OH2            -9.0500356460       -9.4605937155       26.6004137603  SOLV      7815            0.0000000000
     23558      7826  TIP3      H1             -9.7584034324       -9.0348420273       26.0703885989  SOLV      7815            0.0000000000
     23559      7826  TIP3      H2             -9.4436845291      -10.3187659725       26.7953997425  SOLV      7815            0.0000000000
     23560      7827  TIP3      OH2             1.5144121533       -3.2236891816       18.6725920214  SOLV      7816            0.0000000000
     23561      7827  TIP3      H1              1.5887143800       -2.2595085495       18.5023198171  SOLV      7816            0.0000000000
     23562      7827  TIP3      H2              2.4439092180       -3.5103793096       18.5468283353  SOLV      7816            0.0000000000
     23563      7828  TIP3      OH2           -12.7300580674       -3.6310660935       31.9455243614  SOLV      7817            0.0000000000
     23564      7828  TIP3      H1            -11.7820787387       -3.7974861335       31.8807420320  SOLV      7817            0.0000000000
     23565      7828  TIP3      H2            -12.7748941860       -2.9156753496       32.5983653247  SOLV      7817            0.0000000000
     23566      7829  TIP3      OH2             5.9240202333        0.8438698295       32.6107261681  SOLV      7818            0.0000000000
     23567      7829  TIP3      H1              5.9300134435       -0.1167077345       32.7881937188  SOLV      7818            0.0000000000
     23568      7829  TIP3      H2              5.0929501108        1.0994659568       33.0692807801  SOLV      7818            0.0000000000
     23569      7830  TIP3      OH2            -2.9281752741       -1.2267471129       33.7918382382  SOLV      7819            0.0000000000
     23570      7830  TIP3      H1             -2.9924893247       -0.3139447049       34.1488002684  SOLV      7819            0.0000000000
     23571      7830  TIP3      H2             -3.6387952998       -1.6773079701       34.3032724239  SOLV      7819            0.0000000000
     23572      7831  TIP3      OH2            -5.3365778700       -0.0529943813       23.4677240222  SOLV      7820            0.0000000000
     23573      7831  TIP3      H1             -5.8278564415       -0.2428222188       22.6476190920  SOLV      7820            0.0000000000
     23574      7831  TIP3      H2             -5.7129907423        0.8019486611       23.7471163654  SOLV      7820            0.0000000000
     23575      7832  TIP3      OH2           -11.0060060458       -1.5655999780       27.3323234558  SOLV      7821            0.0000000000
     23576      7832  TIP3      H1            -10.5691636684       -1.6717862836       28.2034010224  SOLV      7821            0.0000000000
     23577      7832  TIP3      H2            -11.4846134145       -2.4115676864       27.2518332817  SOLV      7821            0.0000000000
     23578      7833  TIP3      OH2            -3.3789074255       -0.9931860472       19.8343016025  SOLV      7822            0.0000000000
     23579      7833  TIP3      H1             -2.8007758190       -1.7019652416       19.4750025510  SOLV      7822            0.0000000000
     23580      7833  TIP3      H2             -3.0323756701       -0.9008495660       20.7460350332  SOLV      7822            0.0000000000
     23581      7834  TIP3      OH2            -2.8438284061       -0.5243058540       22.5287866387  SOLV      7823            0.0000000000
     23582      7834  TIP3      H1             -3.7414161494       -0.4189746881       22.9182078596  SOLV      7823            0.0000000000
     23583      7834  TIP3      H2             -2.3658092970       -0.9207623618       23.2742936796  SOLV      7823            0.0000000000
     23584      7835  TIP3      OH2             4.9523392818       -7.9297302914       35.4443284771  SOLV      7824            0.0000000000
     23585      7835  TIP3      H1              4.0740696048       -7.5997671298       35.2079008984  SOLV      7824            0.0000000000
     23586      7835  TIP3      H2              4.9359548637       -8.8501673788       35.0996917289  SOLV      7824            0.0000000000
     23587      7836  TIP3      OH2            -4.9917674884      -15.6055462293       33.0875672776  SOLV      7825            0.0000000000
     23588      7836  TIP3      H1             -5.9097598950      -15.9571810929       32.9970862391  SOLV      7825            0.0000000000
     23589      7836  TIP3      H2             -5.1595096006      -14.6541020683       33.1314373219  SOLV      7825            0.0000000000
     23590      7837  TIP3      OH2             2.1449715409      -10.0564265949       34.8890650044  SOLV      7826            0.0000000000
     23591      7837  TIP3      H1              2.4245087674       -9.6406533048       35.7209006723  SOLV      7826            0.0000000000
     23592      7837  TIP3      H2              2.1669651266       -9.2884204618       34.2757890055  SOLV      7826            0.0000000000
     23593      7838  TIP3      OH2            -0.8544893013       -8.9111109984       20.1383515004  SOLV      7827            0.0000000000
     23594      7838  TIP3      H1             -1.2527317638       -9.0805562234       19.2626645808  SOLV      7827            0.0000000000
     23595      7838  TIP3      H2             -0.0488623091       -8.4211326306       19.8837780289  SOLV      7827            0.0000000000
     23596      7839  TIP3      OH2            -3.7506418042      -15.1194866338       23.1772073601  SOLV      7828            0.0000000000
     23597      7839  TIP3      H1             -4.1214093752      -15.1486156816       24.0820533426  SOLV      7828            0.0000000000
     23598      7839  TIP3      H2             -4.1830659647      -15.9114139765       22.8008983061  SOLV      7828            0.0000000000
     23599      7840  TIP3      OH2            -5.7998148418      -10.3457321575       33.7051276470  SOLV      7829            0.0000000000
     23600      7840  TIP3      H1             -6.3599464676      -10.1070258712       34.4537924094  SOLV      7829            0.0000000000
     23601      7840  TIP3      H2             -5.9298743035       -9.5624373027       33.1194558299  SOLV      7829            0.0000000000
     23602      7841  TIP3      OH2            -7.0280290636      -11.5380774810       28.7568332024  SOLV      7830            0.0000000000
     23603      7841  TIP3      H1             -7.9567342792      -11.8026480529       28.9474895969  SOLV      7830            0.0000000000
     23604      7841  TIP3      H2             -6.9267531753      -11.9537325684       27.8708881562  SOLV      7830            0.0000000000
     23605      7842  TIP3      OH2            -2.1481057408      -10.6814167484       26.0757837399  SOLV      7831            0.0000000000
     23606      7842  TIP3      H1             -2.6510320302       -9.9668722229       25.6262183863  SOLV      7831            0.0000000000
     23607      7842  TIP3      H2             -1.6062099639      -11.0321871164       25.3412758488  SOLV      7831            0.0000000000
     23608      7843  TIP3      OH2            -0.6131759486      -10.4288379375       28.4126309427  SOLV      7832            0.0000000000
     23609      7843  TIP3      H1             -1.2441878581      -10.1541354015       27.7149025310  SOLV      7832            0.0000000000
     23610      7843  TIP3      H2             -0.2469576832      -11.2178998115       27.9608900858  SOLV      7832            0.0000000000
     23611      7844  TIP3      OH2            -7.1809193718      -15.3232677749       22.8151039213  SOLV      7833            0.0000000000
     23612      7844  TIP3      H1             -7.3131208667      -15.3183851763       23.7834911662  SOLV      7833            0.0000000000
     23613      7844  TIP3      H2             -7.9485782406      -14.7857643519       22.5298181393  SOLV      7833            0.0000000000
     23614      7845  TIP3      OH2           -11.5064222593      -14.4977391727       30.9399900632  SOLV      7834            0.0000000000
     23615      7845  TIP3      H1            -10.8097508666      -14.2886671046       31.5959158073  SOLV      7834            0.0000000000
     23616      7845  TIP3      H2            -11.0425331628      -15.0580779629       30.3130203638  SOLV      7834            0.0000000000
     23617      7846  TIP3      OH2           -12.1166234221      -15.0994442660       26.7373697201  SOLV      7835            0.0000000000
     23618      7846  TIP3      H1            -11.6812146817      -14.7202530510       25.9431535233  SOLV      7835            0.0000000000
     23619      7846  TIP3      H2            -12.7369100429      -14.3697774385       26.9377423762  SOLV      7835            0.0000000000
     23620      7847  TIP3      OH2            -0.4465679288       -7.8781192355       32.4634238927  SOLV      7836            0.0000000000
     23621      7847  TIP3      H1             -0.0797172551       -8.5951697893       31.8930459016  SOLV      7836            0.0000000000
     23622      7847  TIP3      H2             -0.8090071893       -8.4201103239       33.1937769793  SOLV      7836            0.0000000000
     23623      7848  TIP3      OH2            -3.6951471156      -13.3786773538       29.3342345108  SOLV      7837            0.0000000000
     23624      7848  TIP3      H1             -4.5299949470      -13.3637318051       29.8471067988  SOLV      7837            0.0000000000
     23625      7848  TIP3      H2             -3.0255493009      -13.4000797357       30.0387939416  SOLV      7837            0.0000000000
     23626      7849  TIP3      OH2            -9.4034188527      -12.7360814379       29.2828309744  SOLV      7838            0.0000000000
     23627      7849  TIP3      H1            -10.3595831863      -12.6390329275       29.0521918894  SOLV      7838            0.0000000000
     23628      7849  TIP3      H2             -9.2445057320      -13.6888714730       29.1760052625  SOLV      7838            0.0000000000
     23629      7850  TIP3      OH2            -6.7941665401      -12.8258246583       26.3623955398  SOLV      7839            0.0000000000
     23630      7850  TIP3      H1             -5.8705600534      -12.6470552098       26.1092434593  SOLV      7839            0.0000000000
     23631      7850  TIP3      H2             -7.2963460695      -12.6068647973       25.5413983671  SOLV      7839            0.0000000000
     23632      7851  TIP3      OH2             1.1699825344      -12.5866732423       31.2607957306  SOLV      7840            0.0000000000
     23633      7851  TIP3      H1              0.9921113057      -12.5363453723       32.2304745993  SOLV      7840            0.0000000000
     23634      7851  TIP3      H2              0.4528217324      -13.1865192714       30.9843953756  SOLV      7840            0.0000000000
     23635      7852  TIP3      OH2            -8.2524012049      -12.4747749904       24.1183848336  SOLV      7841            0.0000000000
     23636      7852  TIP3      H1             -8.9749271162      -12.9137506768       23.6362744560  SOLV      7841            0.0000000000
     23637      7852  TIP3      H2             -7.7497854941      -12.0835620123       23.3728895755  SOLV      7841            0.0000000000
     23638      7853  TIP3      OH2             2.8740607307        4.3298654019       33.6308249929  SOLV      7842            0.0000000000
     23639      7853  TIP3      H1              2.8603816999        4.5886620965       32.6934756569  SOLV      7842            0.0000000000
     23640      7853  TIP3      H2              3.6983054875        4.7711844251       33.9328523066  SOLV      7842            0.0000000000
     23641      7854  TIP3      OH2            -2.9597018795       -9.9954363209       30.3165163782  SOLV      7843            0.0000000000
     23642      7854  TIP3      H1             -2.2177165936      -10.4060328862       29.8482663693  SOLV      7843            0.0000000000
     23643      7854  TIP3      H2             -2.9545176235      -10.4672394562       31.1768811298  SOLV      7843            0.0000000000
     23644      7855  TIP3      OH2            -7.7371748395      -15.1720356497       29.1701505750  SOLV      7844            0.0000000000
     23645      7855  TIP3      H1             -8.1015647203      -15.9110140673       29.7075888451  SOLV      7844            0.0000000000
     23646      7855  TIP3      H2             -7.3846240180      -15.6381999082       28.4014675238  SOLV      7844            0.0000000000
     23647      7856  TIP3      OH2            -3.2300557000      -10.9769955245       32.9483501902  SOLV      7845            0.0000000000
     23648      7856  TIP3      H1             -4.1115906833      -10.6794528413       33.2616294066  SOLV      7845            0.0000000000
     23649      7856  TIP3      H2             -2.6213378376      -10.3974898080       33.4557990734  SOLV      7845            0.0000000000
     23650      7857  TIP3      OH2            -5.8228489849       -7.1812542987       24.2159926256  SOLV      7846            0.0000000000
     23651      7857  TIP3      H1             -6.5469536903       -7.8316880021       24.0823033641  SOLV      7846            0.0000000000
     23652      7857  TIP3      H2             -6.0518975791       -6.8295787457       25.1116340609  SOLV      7846            0.0000000000
     23653      7858  TIP3      OH2             3.1518075587       -4.7935106090       30.4480307421  SOLV      7847            0.0000000000
     23654      7858  TIP3      H1              3.3934909301       -4.2747584621       29.6517437788  SOLV      7847            0.0000000000
     23655      7858  TIP3      H2              2.3149457458       -5.2263489495       30.1714409075  SOLV      7847            0.0000000000
     23656      7859  TIP3      OH2            -1.2570309663      -14.0787076077       22.8759608114  SOLV      7848            0.0000000000
     23657      7859  TIP3      H1             -2.2174185328      -14.2879540984       22.9642460275  SOLV      7848            0.0000000000
     23658      7859  TIP3      H2             -1.2076978214      -13.1353883054       23.1316829650  SOLV      7848            0.0000000000
     23659      7860  TIP3      OH2            -1.7724270091       -3.7975131165       34.0593359825  SOLV      7849            0.0000000000
     23660      7860  TIP3      H1             -2.1681340854       -4.2907034630       34.7784013514  SOLV      7849            0.0000000000
     23661      7860  TIP3      H2             -2.2520022114       -2.9513324717       34.0742029240  SOLV      7849            0.0000000000
     23662      7861  TIP3      OH2            -0.5878669230      -11.5552485995       23.8989888447  SOLV      7850            0.0000000000
     23663      7861  TIP3      H1              0.3729333523      -11.4720273665       24.0519172726  SOLV      7850            0.0000000000
     23664      7861  TIP3      H2             -0.7960576576      -10.7402097684       23.3984630945  SOLV      7850            0.0000000000
     23665      7862  TIP3      OH2            -8.7373631935       -6.7626595834       30.9112030269  SOLV      7851            0.0000000000
     23666      7862  TIP3      H1             -8.4172807246       -7.1673261611       30.0784400974  SOLV      7851            0.0000000000
     23667      7862  TIP3      H2             -8.8668052003       -7.5323427745       31.4846819498  SOLV      7851            0.0000000000
     23668      7863  TIP3      OH2            -4.3629656584       -5.6623488564       22.4806776882  SOLV      7852            0.0000000000
     23669      7863  TIP3      H1             -4.8596958113       -4.8095406844       22.4803559944  SOLV      7852            0.0000000000
     23670      7863  TIP3      H2             -4.9223793170       -6.2069407372       23.0761844217  SOLV      7852            0.0000000000
     23671      7864  TIP3      OH2            -0.2014573226       -1.2417542526       33.1682575052  SOLV      7853            0.0000000000
     23672      7864  TIP3      H1             -1.1671420601       -1.3526538880       33.2510177644  SOLV      7853            0.0000000000
     23673      7864  TIP3      H2             -0.0061681822       -0.7257203144       33.9680690034  SOLV      7853            0.0000000000
     23674      7865  TIP3      OH2             3.8277048839      -10.6144908708       22.2053476290  SOLV      7854            0.0000000000
     23675      7865  TIP3      H1              3.2219732516      -11.0471882619       21.5575314534  SOLV      7854            0.0000000000
     23676      7865  TIP3      H2              3.7837997485       -9.7051131389       21.8331751609  SOLV      7854            0.0000000000
     23677      7866  TIP3      OH2             6.0408377476       -2.0281398953       32.9962582120  SOLV      7855            0.0000000000
     23678      7866  TIP3      H1              5.0624708305       -2.0998856114       32.9244969270  SOLV      7855            0.0000000000
     23679      7866  TIP3      H2              6.3006169346       -2.3331556092       32.0972218935  SOLV      7855            0.0000000000
     23680      7867  TIP3      OH2             0.9314045896       -2.4598348696       21.3344594726  SOLV      7856            0.0000000000
     23681      7867  TIP3      H1              0.5736142324       -3.1395804387       21.9222169489  SOLV      7856            0.0000000000
     23682      7867  TIP3      H2              1.0111524283       -2.9245347040       20.4816613368  SOLV      7856            0.0000000000
     23683      7868  TIP3      OH2             0.8112137779       -6.1467803106       29.5929634871  SOLV      7857            0.0000000000
     23684      7868  TIP3      H1             -0.1266413713       -6.3821707132       29.7210796746  SOLV      7857            0.0000000000
     23685      7868  TIP3      H2              1.1440705457       -6.9593869413       29.1616142683  SOLV      7857            0.0000000000
     23686      7869  TIP3      OH2            -7.8713359998       -3.8399320178       27.2717669843  SOLV      7858            0.0000000000
     23687      7869  TIP3      H1             -7.9202571198       -3.0536387072       26.6912942470  SOLV      7858            0.0000000000
     23688      7869  TIP3      H2             -8.7924551484       -4.1245515938       27.2748151840  SOLV      7858            0.0000000000
     23689      7870  TIP3      OH2           -12.1996395385      -10.8744704660       24.3015192667  SOLV      7859            0.0000000000
     23690      7870  TIP3      H1            -11.7854623805      -10.0098102347       24.5044922111  SOLV      7859            0.0000000000
     23691      7870  TIP3      H2            -12.9839684450      -10.8445768142       24.8950368898  SOLV      7859            0.0000000000
     23692      7871  TIP3      OH2            -6.5921278217       -6.2434697230       26.6193458113  SOLV      7860            0.0000000000
     23693      7871  TIP3      H1             -6.9009124150       -5.3450386012       26.8441238342  SOLV      7860            0.0000000000
     23694      7871  TIP3      H2             -6.9445626326       -6.7671933607       27.3627535768  SOLV      7860            0.0000000000
     23695      7872  TIP3      OH2            -5.1984796603       -0.4765601727       31.8732029171  SOLV      7861            0.0000000000
     23696      7872  TIP3      H1             -4.8024506925        0.2695076100       31.3732800533  SOLV      7861            0.0000000000
     23697      7872  TIP3      H2             -4.4107697435       -0.8318896661       32.3157612403  SOLV      7861            0.0000000000
     23698      7873  TIP3      OH2            -8.7032097912       -1.5071167889       25.7296865956  SOLV      7862            0.0000000000
     23699      7873  TIP3      H1             -9.5626654709       -1.3939585080       26.1823222718  SOLV      7862            0.0000000000
     23700      7873  TIP3      H2             -8.3675681617       -0.5823015362       25.7406786896  SOLV      7862            0.0000000000
     23701      7874  TIP3      OH2            -1.3152426151       -4.1283213658       31.4264356315  SOLV      7863            0.0000000000
     23702      7874  TIP3      H1             -1.3657429064       -4.0838202217       32.4090021537  SOLV      7863            0.0000000000
     23703      7874  TIP3      H2             -0.5226451016       -4.6688600271       31.3040937478  SOLV      7863            0.0000000000
     23704      7875  TIP3      OH2            -1.5322449378       -5.1528694014       20.3063603409  SOLV      7864            0.0000000000
     23705      7875  TIP3      H1             -1.0312341242       -5.4195469129       21.1110962127  SOLV      7864            0.0000000000
     23706      7875  TIP3      H2             -2.4258968851       -5.4537287463       20.5345663297  SOLV      7864            0.0000000000
     23707      7876  TIP3      OH2             1.1266514558        1.2139517307       31.9885547093  SOLV      7865            0.0000000000
     23708      7876  TIP3      H1              0.3262981453        0.6592682784       31.8901347684  SOLV      7865            0.0000000000
     23709      7876  TIP3      H2              1.0021771737        1.8500848905       31.2498771437  SOLV      7865            0.0000000000
     23710      7877  TIP3      OH2             1.8085674057       -0.4712000757       18.4825613305  SOLV      7866            0.0000000000
     23711      7877  TIP3      H1              2.1189450249        0.2453422005       17.9065291370  SOLV      7866            0.0000000000
     23712      7877  TIP3      H2              1.0153749855       -0.0378540965       18.8617262509  SOLV      7866            0.0000000000
     23713      7878  TIP3      OH2             0.0711590492       -5.8575438665       22.4539870938  SOLV      7867            0.0000000000
     23714      7878  TIP3      H1             -0.0405027291       -6.5059925912       23.1768399605  SOLV      7867            0.0000000000
     23715      7878  TIP3      H2              1.0432639371       -5.8983992030       22.3351168033  SOLV      7867            0.0000000000
     23716      7879  TIP3      OH2           -10.8780582582       -1.7198096062       33.3974475717  SOLV      7868            0.0000000000
     23717      7879  TIP3      H1            -10.2855594815       -2.4720371914       33.5120924556  SOLV      7868            0.0000000000
     23718      7879  TIP3      H2            -10.3743434814       -0.9883381801       33.7857560611  SOLV      7868            0.0000000000
     23719      7880  TIP3      OH2            -7.8976087509       -5.3872953223       20.3226832481  SOLV      7869            0.0000000000
     23720      7880  TIP3      H1             -7.8158619912       -6.3198294479       20.0506153658  SOLV      7869            0.0000000000
     23721      7880  TIP3      H2             -8.1381512783       -5.4812919985       21.2655578507  SOLV      7869            0.0000000000
     23722      7881  TIP3      OH2            -8.4851286033       -5.3264194737       23.0373574208  SOLV      7870            0.0000000000
     23723      7881  TIP3      H1             -7.7274093439       -5.5801919063       23.5808973161  SOLV      7870            0.0000000000
     23724      7881  TIP3      H2             -8.4586145742       -4.3447777743       23.1019172614  SOLV      7870            0.0000000000
     23725      7882  TIP3      OH2           -11.1443653084       -8.4090595228       25.0921534123  SOLV      7871            0.0000000000
     23726      7882  TIP3      H1            -11.8268858940       -7.9665939173       25.6405169292  SOLV      7871            0.0000000000
     23727      7882  TIP3      H2            -11.0327925893       -7.7350619089       24.3915082117  SOLV      7871            0.0000000000
     23728      7883  TIP3      OH2             0.7465587393      -12.2039155372       33.9365959919  SOLV      7872            0.0000000000
     23729      7883  TIP3      H1              1.3055942174      -11.4619407265       34.2510228201  SOLV      7872            0.0000000000
     23730      7883  TIP3      H2              0.2892588737      -12.4611411503       34.7621704340  SOLV      7872            0.0000000000
     23731      7884  TIP3      OH2            -0.7375392159      -14.5977464725       25.7013061011  SOLV      7873            0.0000000000
     23732      7884  TIP3      H1             -0.9090203211      -14.3719172838       24.7676027971  SOLV      7873            0.0000000000
     23733      7884  TIP3      H2             -0.3716361015      -13.7559375533       26.0508218048  SOLV      7873            0.0000000000
     23734      7885  TIP3      OH2            -5.7735553349       -3.3647692794       22.5360481796  SOLV      7874            0.0000000000
     23735      7885  TIP3      H1             -6.6541290623       -3.1306654801       22.8909345691  SOLV      7874            0.0000000000
     23736      7885  TIP3      H2             -5.6694041706       -2.6662133928       21.8715758784  SOLV      7874            0.0000000000
     23737      7886  TIP3      OH2            -3.9324625530      -12.7125447690       26.6627712568  SOLV      7875            0.0000000000
     23738      7886  TIP3      H1             -3.3098039179      -11.9699969794       26.5077692484  SOLV      7875            0.0000000000
     23739      7886  TIP3      H2             -3.8732107210      -12.8098850810       27.6373343802  SOLV      7875            0.0000000000
     23740      7887  TIP3      OH2            -1.3863794700       -9.5552510533       34.4039837382  SOLV      7876            0.0000000000
     23741      7887  TIP3      H1             -1.6947651789       -9.1524980325       35.2309540825  SOLV      7876            0.0000000000
     23742      7887  TIP3      H2             -0.6387518926      -10.0870270230       34.7165176997  SOLV      7876            0.0000000000
     23743      7888  TIP3      OH2            -2.5295656355      -15.5372081966       27.6594152572  SOLV      7877            0.0000000000
     23744      7888  TIP3      H1             -2.6585981830      -14.7437954888       28.2147993982  SOLV      7877            0.0000000000
     23745      7888  TIP3      H2             -1.8792364671      -15.1971258067       27.0028432910  SOLV      7877            0.0000000000
     23746      7889  TIP3      OH2            -8.3100776532       -2.6114330496       23.2240755471  SOLV      7878            0.0000000000
     23747      7889  TIP3      H1             -8.6216825343       -1.9195593406       22.5971173786  SOLV      7878            0.0000000000
     23748      7889  TIP3      H2             -8.4949059966       -2.1831003414       24.0880622285  SOLV      7878            0.0000000000
     23749      7890  TIP3      OH2            -7.3685377966      -15.4553032613       25.5829195264  SOLV      7879            0.0000000000
     23750      7890  TIP3      H1             -7.4051198014      -14.5529150284       25.9602817323  SOLV      7879            0.0000000000
     23751      7890  TIP3      H2             -6.4033406191      -15.6131104585       25.6521561174  SOLV      7879            0.0000000000
     23752      7891  TIP3      OH2             4.9269594877      -10.5339728636       34.5153909690  SOLV      7880            0.0000000000
     23753      7891  TIP3      H1              3.9990455982      -10.8274079126       34.5386793015  SOLV      7880            0.0000000000
     23754      7891  TIP3      H2              5.2303288668      -10.9451127744       33.6930236014  SOLV      7880            0.0000000000
     23755      7892  TIP3      OH2             1.6731845715       -8.6093003641       28.4267473877  SOLV      7881            0.0000000000
     23756      7892  TIP3      H1              0.9109286655       -9.2008941698       28.5536300628  SOLV      7881            0.0000000000
     23757      7892  TIP3      H2              2.3831470832       -9.0785600278       28.9158623410  SOLV      7881            0.0000000000
     23758      7893  TIP3      OH2           -11.1703521870       -6.3911736665       23.1189387544  SOLV      7882            0.0000000000
     23759      7893  TIP3      H1            -10.4748893098       -5.7103988480       23.1821910246  SOLV      7882            0.0000000000
     23760      7893  TIP3      H2            -10.7538054674       -6.9694560813       22.4418907659  SOLV      7882            0.0000000000
     23761      7894  TIP3      OH2           -11.7859285996      -13.5856410938       24.4747117259  SOLV      7883            0.0000000000
     23762      7894  TIP3      H1            -11.7287205638      -12.6084823484       24.4808339132  SOLV      7883            0.0000000000
     23763      7894  TIP3      H2            -12.6034444277      -13.7212940416       23.9827082771  SOLV      7883            0.0000000000
     23764      7895  TIP3      OH2             1.3726730032        1.0031543399       27.8944909847  SOLV      7884            0.0000000000
     23765      7895  TIP3      H1              0.9429289626        1.4805303023       27.1489642183  SOLV      7884            0.0000000000
     23766      7895  TIP3      H2              2.3172014360        1.1786488148       27.6823403042  SOLV      7884            0.0000000000
     23767      7896  TIP3      OH2            -7.4973697274      -16.5751453536       33.2682022920  SOLV      7885            0.0000000000
     23768      7896  TIP3      H1             -8.0998045924      -16.5452139583       32.5007054973  SOLV      7885            0.0000000000
     23769      7896  TIP3      H2             -7.9332315947      -17.1940928672       33.8680513778  SOLV      7885            0.0000000000
     23770      7897  TIP3      OH2           -12.5050765273       -4.1352274545       26.9340668333  SOLV      7886            0.0000000000
     23771      7897  TIP3      H1            -13.1462645131       -3.8778113779       27.6112648638  SOLV      7886            0.0000000000
     23772      7897  TIP3      H2            -12.8928536583       -3.7075420036       26.1304137303  SOLV      7886            0.0000000000
     23773      7898  TIP3      OH2            -6.2718553600       -3.3600392790       19.4206648005  SOLV      7887            0.0000000000
     23774      7898  TIP3      H1             -6.8179006871       -4.1011063700       19.7744730683  SOLV      7887            0.0000000000
     23775      7898  TIP3      H2             -5.5396870252       -3.8518461116       19.0038384307  SOLV      7887            0.0000000000
     23776      7899  TIP3      OH2             0.3390089080       -0.1254121432       35.7792986596  SOLV      7888            0.0000000000
     23777      7899  TIP3      H1              0.9499406200       -0.8619704022       35.9249270110  SOLV      7888            0.0000000000
     23778      7899  TIP3      H2              0.9571937929        0.6323935206       35.8598146838  SOLV      7888            0.0000000000
     23779      7900  TIP3      OH2            -1.9351122453       -2.9755101856       18.5633576686  SOLV      7889            0.0000000000
     23780      7900  TIP3      H1             -1.5365516690       -3.6481732005       19.1491931280  SOLV      7889            0.0000000000
     23781      7900  TIP3      H2             -1.3902320000       -3.0393654109       17.7546144760  SOLV      7889            0.0000000000
     23782      7901  TIP3      OH2            -9.8161088860       -8.2254749286       21.6689114586  SOLV      7890            0.0000000000
     23783      7901  TIP3      H1             -9.2333827671       -8.4943151316       22.4005574063  SOLV      7890            0.0000000000
     23784      7901  TIP3      H2             -9.1589184843       -8.1589457780       20.9409660406  SOLV      7890            0.0000000000
     23785      7902  TIP3      OH2            -4.5733992324       -6.1812772190       19.7727540467  SOLV      7891            0.0000000000
     23786      7902  TIP3      H1             -4.6237355174       -6.0794114995       20.7438999375  SOLV      7891            0.0000000000
     23787      7902  TIP3      H2             -4.6170095190       -7.1589687290       19.6893405732  SOLV      7891            0.0000000000
     23788      7903  TIP3      OH2             1.3762180843       -3.6139755358       33.5381733577  SOLV      7892            0.0000000000
     23789      7903  TIP3      H1              2.1598283517       -3.2241467222       33.1038422404  SOLV      7892            0.0000000000
     23790      7903  TIP3      H2              0.7021341121       -2.9349806225       33.3475674983  SOLV      7892            0.0000000000
     23791      7904  TIP3      OH2            -7.7614057104       -9.1209559190       23.8603163173  SOLV      7893            0.0000000000
     23792      7904  TIP3      H1             -8.0700526052       -9.5181422379       24.6913627405  SOLV      7893            0.0000000000
     23793      7904  TIP3      H2             -7.3921202622       -9.8909567436       23.3807486473  SOLV      7893            0.0000000000
     23794      7905  TIP3      OH2            -6.7278140266      -11.1754143760       22.2503314587  SOLV      7894            0.0000000000
     23795      7905  TIP3      H1             -6.9801686848      -11.0638691801       21.3089795213  SOLV      7894            0.0000000000
     23796      7905  TIP3      H2             -5.7505137643      -11.1628226825       22.1775133340  SOLV      7894            0.0000000000
     23797      7906  TIP3      OH2             1.4717789686       -7.9255888060       18.9497041903  SOLV      7895            0.0000000000
     23798      7906  TIP3      H1              1.2574361071       -8.3403430398       18.0889078709  SOLV      7895            0.0000000000
     23799      7906  TIP3      H2              1.1378810705       -7.0152569591       18.7634029402  SOLV      7895            0.0000000000
     23800      7907  TIP3      OH2            -3.4549950020      -12.9989532695       34.9209164331  SOLV      7896            0.0000000000
     23801      7907  TIP3      H1             -3.4361682251      -12.4857689412       34.0917001862  SOLV      7896            0.0000000000
     23802      7907  TIP3      H2             -4.4078155602      -13.1625953400       35.0374196824  SOLV      7896            0.0000000000
     23803      7908  TIP3      OH2            -3.2120935573       -7.0299233955       34.3771579076  SOLV      7897            0.0000000000
     23804      7908  TIP3      H1             -2.6610798584       -7.1748454424       33.6021106978  SOLV      7897            0.0000000000
     23805      7908  TIP3      H2             -4.0401602486       -6.7027555364       33.9736077215  SOLV      7897            0.0000000000
     23806      7909  TIP3      OH2             2.7847076541       -5.4689012609       34.9691996420  SOLV      7898            0.0000000000
     23807      7909  TIP3      H1              2.1363620315       -4.8354882670       34.5845048930  SOLV      7898            0.0000000000
     23808      7909  TIP3      H2              3.6219200520       -5.0848131431       34.6221560291  SOLV      7898            0.0000000000
     23809      7910  TIP3      OH2            -8.6261315238       -0.5675695422       21.3674021839  SOLV      7899            0.0000000000
     23810      7910  TIP3      H1             -7.6834921525       -0.6619352358       21.1352705007  SOLV      7899            0.0000000000
     23811      7910  TIP3      H2             -8.9356631900       -0.0674638645       20.5882618054  SOLV      7899            0.0000000000
     23812      7911  TIP3      OH2           -13.8666894517       -6.7638070353       23.4838559805  SOLV      7900            0.0000000000
     23813      7911  TIP3      H1            -12.9203157761       -6.5590859712       23.3161021048  SOLV      7900            0.0000000000
     23814      7911  TIP3      H2            -13.9502092002       -7.6437359519       23.0578764409  SOLV      7900            0.0000000000
     23815      7912  TIP3      OH2           -14.7150495078       -0.6351921164       27.6676806621  SOLV      7901            0.0000000000
     23816      7912  TIP3      H1            -15.3529320512       -1.2433345458       27.2340964791  SOLV      7901            0.0000000000
     23817      7912  TIP3      H2            -14.2650097186       -1.2556666083       28.2793948359  SOLV      7901            0.0000000000
     23818      7913  TIP3      OH2           -13.3933051919       -2.2125981746       29.5068034524  SOLV      7902            0.0000000000
     23819      7913  TIP3      H1            -13.5241922666       -2.9028597192       30.1816476443  SOLV      7902            0.0000000000
     23820      7913  TIP3      H2            -12.7898278110       -1.6137850915       29.9815172640  SOLV      7902            0.0000000000
     23821      7914  TIP3      OH2             3.9409320370        1.8527545116       27.5311047978  SOLV      7903            0.0000000000
     23822      7914  TIP3      H1              4.2016978824        2.1344336723       28.4269080806  SOLV      7903            0.0000000000
     23823      7914  TIP3      H2              4.6248944153        2.2565289196       26.9757183530  SOLV      7903            0.0000000000
     23824      7915  TIP3      OH2             4.2156097335        2.0539457122       30.3437603914  SOLV      7904            0.0000000000
     23825      7915  TIP3      H1              3.7570284260        1.1858133266       30.2991604574  SOLV      7904            0.0000000000
     23826      7915  TIP3      H2              4.9480139728        1.8148570365       30.9351759461  SOLV      7904            0.0000000000
     23827      7916  TIP3      OH2             4.6407958329       -1.0455802947       35.8871428934  SOLV      7905            0.0000000000
     23828      7916  TIP3      H1              3.9840109497       -1.0020091777       36.6049544492  SOLV      7905            0.0000000000
     23829      7916  TIP3      H2              5.1301433370       -0.2083639784       36.0202832403  SOLV      7905            0.0000000000
     23830      7917  TIP3      OH2             2.8524861200       -6.0711073564       22.2403180556  SOLV      7906            0.0000000000
     23831      7917  TIP3      H1              3.4888565652       -5.3953130732       21.9318841713  SOLV      7906            0.0000000000
     23832      7917  TIP3      H2              3.3137198125       -6.4227871452       23.0335733919  SOLV      7906            0.0000000000
     23833      7918  TIP3      OH2             4.1351308258       -7.3953903111       24.2923137049  SOLV      7907            0.0000000000
     23834      7918  TIP3      H1              3.4513003690       -7.7849586534       24.8800778546  SOLV      7907            0.0000000000
     23835      7918  TIP3      H2              4.7765354446       -7.0216821460       24.9315358472  SOLV      7907            0.0000000000
     23836      7919  TIP3      OH2             4.6832273790       -3.4157695532       28.5943002872  SOLV      7908            0.0000000000
     23837      7919  TIP3      H1              5.2103838582       -4.1111325761       28.1514500684  SOLV      7908            0.0000000000
     23838      7919  TIP3      H2              4.6572521774       -2.7111778023       27.9183137805  SOLV      7908            0.0000000000
     23839      7920  TIP3      OH2             2.9325162003       -0.4045339901       30.5133604811  SOLV      7909            0.0000000000
     23840      7920  TIP3      H1              2.2011616252       -0.0336590965       31.0407538235  SOLV      7909            0.0000000000
     23841      7920  TIP3      H2              2.4527614523       -0.8716481419       29.7950385203  SOLV      7909            0.0000000000
     23842      7921  TIP3      OH2             3.4912712916       -8.2923235184       20.7346559106  SOLV      7910            0.0000000000
     23843      7921  TIP3      H1              2.7775884072       -8.2676129913       20.0555466224  SOLV      7910            0.0000000000
     23844      7921  TIP3      H2              3.2023015341       -7.5368256335       21.2901289519  SOLV      7910            0.0000000000
     23845      7922  TIP3      OH2             2.2507572347      -11.5967142815       20.2156779131  SOLV      7911            0.0000000000
     23846      7922  TIP3      H1              1.6904416612      -11.1966231322       19.5398666513  SOLV      7911            0.0000000000
     23847      7922  TIP3      H2              2.0101731310      -12.5426983058       20.1183158733  SOLV      7911            0.0000000000
     23848      7923  TIP3      OH2             2.2320538017       -8.7630159871       25.7418197591  SOLV      7912            0.0000000000
     23849      7923  TIP3      H1              2.2969643434       -9.7279935570       25.6585780650  SOLV      7912            0.0000000000
     23850      7923  TIP3      H2              2.0800760634       -8.6463014352       26.7071154165  SOLV      7912            0.0000000000
     23851      7924  TIP3      OH2           -11.4663704583       -7.6004875484       32.9142628659  SOLV      7913            0.0000000000
     23852      7924  TIP3      H1            -11.6125170047       -8.1692747415       32.1307754064  SOLV      7913            0.0000000000
     23853      7924  TIP3      H2            -10.5829870057       -7.9030806519       33.2059801667  SOLV      7913            0.0000000000
     23854      7925  TIP3      OH2             5.1484929523       -4.5253199312       34.0750243611  SOLV      7914            0.0000000000
     23855      7925  TIP3      H1              5.8854654238       -5.1789690684       34.0813501174  SOLV      7914            0.0000000000
     23856      7925  TIP3      H2              5.5337873884       -3.7825877549       33.5814806431  SOLV      7914            0.0000000000
     23857      7926  TIP3      OH2             6.9718949777       -6.4602224668       34.3567771900  SOLV      7915            0.0000000000
     23858      7926  TIP3      H1              6.2953367821       -6.9772158495       34.8429501156  SOLV      7915            0.0000000000
     23859      7926  TIP3      H2              7.7445323609       -7.0487472377       34.4952622558  SOLV      7915            0.0000000000
     23860      7927  TIP3      OH2             1.6433562715      -14.2714492198       20.0281706048  SOLV      7916            0.0000000000
     23861      7927  TIP3      H1              2.3107751689      -14.5580798964       20.6815661295  SOLV      7916            0.0000000000
     23862      7927  TIP3      H2              0.8515887727      -14.7880716762       20.2639094134  SOLV      7916            0.0000000000
     23863      7928  TIP3      OH2             2.2234303837      -11.6148529783       24.6566715177  SOLV      7917            0.0000000000
     23864      7928  TIP3      H1              2.6286671094      -12.5032033797       24.7984244030  SOLV      7917            0.0000000000
     23865      7928  TIP3      H2              2.7988073272      -11.2827299550       23.9453176889  SOLV      7917            0.0000000000
     23866      7929  TIP3      OH2             3.7901680761       -9.9471798497       29.6391739239  SOLV      7918            0.0000000000
     23867      7929  TIP3      H1              4.6454340878       -9.7105755138       29.2125237337  SOLV      7918            0.0000000000
     23868      7929  TIP3      H2              3.9483360696       -9.5516301241       30.5197162933  SOLV      7918            0.0000000000
     23869      7930  TIP3      OH2             4.5349152222       -8.4708474908       31.9130187720  SOLV      7919            0.0000000000
     23870      7930  TIP3      H1              3.7653649175       -8.1417659425       32.4193006201  SOLV      7919            0.0000000000
     23871      7930  TIP3      H2              4.8578188258       -7.6483363512       31.4825335130  SOLV      7919            0.0000000000
     23872      7931  TIP3      OH2             9.0175381871      -12.6467310377       37.0570863808  SOLV      7920            0.0000000000
     23873      7931  TIP3      H1              9.6186000559      -13.1629319738       36.4816753044  SOLV      7920            0.0000000000
     23874      7931  TIP3      H2              8.7726422708      -11.9034483316       36.4671078899  SOLV      7920            0.0000000000
     23875      7932  TIP3      OH2             3.3115774877      -14.1186327689       25.0329051604  SOLV      7921            0.0000000000
     23876      7932  TIP3      H1              3.7809497440      -14.2736264381       25.8800936790  SOLV      7921            0.0000000000
     23877      7932  TIP3      H2              2.6857423193      -14.8713168579       25.0335812000  SOLV      7921            0.0000000000
     23878      7933  TIP3      OH2            -9.5035800254      -14.3510339967       32.7680177597  SOLV      7922            0.0000000000
     23879      7933  TIP3      H1             -9.7627611550      -14.7810562776       33.6056388778  SOLV      7922            0.0000000000
     23880      7933  TIP3      H2             -9.2731461266      -13.4506828333       33.0514003742  SOLV      7922            0.0000000000
     23881      7934  TIP3      OH2           -10.6856060658      -11.6594775063       34.1618596962  SOLV      7923            0.0000000000
     23882      7934  TIP3      H1            -10.7810499371      -11.5594094570       33.2004554555  SOLV      7923            0.0000000000
     23883      7934  TIP3      H2            -11.4143829322      -11.1097062423       34.4897484631  SOLV      7923            0.0000000000
     23884      7935  TIP3      OH2             7.5892929734      -11.0744344256       35.3208511548  SOLV      7924            0.0000000000
     23885      7935  TIP3      H1              6.6976549996      -10.7269238720       35.5149058303  SOLV      7924            0.0000000000
     23886      7935  TIP3      H2              7.3462406296      -11.8443337388       34.7712043383  SOLV      7924            0.0000000000
     23887      7936  TIP3      OH2             4.0593198356      -14.8225221444       21.4344960434  SOLV      7925            0.0000000000
     23888      7936  TIP3      H1              4.4636794849      -15.4970196394       20.8517434429  SOLV      7925            0.0000000000
     23889      7936  TIP3      H2              4.7188755020      -14.1018149287       21.4132918920  SOLV      7925            0.0000000000
     23890      7937  TIP3      OH2           -11.8014124850      -16.6467004911       28.9181022817  SOLV      7926            0.0000000000
     23891      7937  TIP3      H1            -12.7270083463      -16.5965057261       29.2053823357  SOLV      7926            0.0000000000
     23892      7937  TIP3      H2            -11.8120369309      -15.9955428960       28.1805006710  SOLV      7926            0.0000000000
     23893      7938  TIP3      OH2            -0.2217577232        0.5532844748       24.0792852600  SOLV      7927            0.0000000000
     23894      7938  TIP3      H1              0.2664588571        0.4442445590       23.2360201921  SOLV      7927            0.0000000000
     23895      7938  TIP3      H2              0.3205462396        1.2127120504       24.5364313838  SOLV      7927            0.0000000000
     23896      7939  TIP3      OH2            -7.4875731062       -1.0892106798       33.2831915871  SOLV      7928            0.0000000000
     23897      7939  TIP3      H1             -7.9185680210       -0.2948801571       32.8945669566  SOLV      7928            0.0000000000
     23898      7939  TIP3      H2             -6.6236442874       -0.9988079028       32.8265308145  SOLV      7928            0.0000000000
     23899      7940  TIP3      OH2            -3.0945830310        1.3753360537       34.7589191560  SOLV      7929            0.0000000000
     23900      7940  TIP3      H1             -2.6921736197        1.3597607773       35.6540532545  SOLV      7929            0.0000000000
     23901      7940  TIP3      H2             -2.4358999778        1.9102195082       34.2638498196  SOLV      7929            0.0000000000
     23902      7941  TIP3      OH2            -1.2411586466        2.8905067774       33.4065225373  SOLV      7930            0.0000000000
     23903      7941  TIP3      H1             -0.5391667966        2.4436429485       32.9111717608  SOLV      7930            0.0000000000
     23904      7941  TIP3      H2             -0.7087161033        3.4537541824       34.0113488936  SOLV      7930            0.0000000000
     23905      7942  TIP3      OH2             6.6928336796      -13.5509231538       34.1514496437  SOLV      7931            0.0000000000
     23906      7942  TIP3      H1              5.7918406830      -13.7441014293       33.8321191743  SOLV      7931            0.0000000000
     23907      7942  TIP3      H2              7.0712816555      -14.4604457984       34.1455551247  SOLV      7931            0.0000000000
     23908      7943  TIP3      OH2           -10.6369607471        1.4353794108       33.6817312658  SOLV      7932            0.0000000000
     23909      7943  TIP3      H1            -11.5310305790        1.7232573398       33.3881080535  SOLV      7932            0.0000000000
     23910      7943  TIP3      H2            -10.4931635224        2.0476200986       34.4213389881  SOLV      7932            0.0000000000
     23911      7944  TIP3      OH2            -8.3290207133        1.2625110539       32.2062367457  SOLV      7933            0.0000000000
     23912      7944  TIP3      H1             -9.2031371684        1.3863855079       32.6394733793  SOLV      7933            0.0000000000
     23913      7944  TIP3      H2             -8.5144044271        1.5820074132       31.2990303764  SOLV      7933            0.0000000000
     23914      7945  TIP3      OH2            -4.1084983070        1.5034250912       30.2281015250  SOLV      7934            0.0000000000
     23915      7945  TIP3      H1             -4.7842262650        1.6793325442       29.5464335816  SOLV      7934            0.0000000000
     23916      7945  TIP3      H2             -3.9826453514        2.3953924331       30.6136577079  SOLV      7934            0.0000000000
     23917      7946  TIP3      OH2            -1.3949272748        0.9057155381       30.7453213475  SOLV      7935            0.0000000000
     23918      7946  TIP3      H1             -2.3326934475        1.0846836601       30.5361252022  SOLV      7935            0.0000000000
     23919      7946  TIP3      H2             -0.9458208446        1.6161742537       30.2595951612  SOLV      7935            0.0000000000
     23920      7947  TIP3      OH2             0.6721300582        2.8241299675       29.8387971107  SOLV      7936            0.0000000000
     23921      7947  TIP3      H1              0.5242880676        3.6633290121       29.3542891917  SOLV      7936            0.0000000000
     23922      7947  TIP3      H2              0.9419992551        2.2194268045       29.1110978976  SOLV      7936            0.0000000000
     23923      7948  TIP3      OH2           -11.6475107322       -0.5887828232       31.0040196529  SOLV      7937            0.0000000000
     23924      7948  TIP3      H1            -11.4328762441       -0.8483660773       31.9265001654  SOLV      7937            0.0000000000
     23925      7948  TIP3      H2            -10.8935038495       -1.0171325153       30.5369227367  SOLV      7937            0.0000000000
     23926      7949  TIP3      OH2            -9.6348173115       -1.8755788412       29.7116412753  SOLV      7938            0.0000000000
     23927      7949  TIP3      H1             -9.4469620079       -2.6991450177       30.2145951058  SOLV      7938            0.0000000000
     23928      7949  TIP3      H2             -8.7317915254       -1.5065185609       29.6122864154  SOLV      7938            0.0000000000
     23929      7950  TIP3      OH2            -6.9626037301       -0.9560676664       29.7195142275  SOLV      7939            0.0000000000
     23930      7950  TIP3      H1             -6.6581230890       -1.8678008184       29.5628685989  SOLV      7939            0.0000000000
     23931      7950  TIP3      H2             -6.4466209861       -0.7440615243       30.5207363914  SOLV      7939            0.0000000000
     23932      7951  TIP3      OH2            -1.1921619603      -14.3838740445       30.6032260668  SOLV      7940            0.0000000000
     23933      7951  TIP3      H1             -1.6067878395      -15.1175514534       31.0974347831  SOLV      7940            0.0000000000
     23934      7951  TIP3      H2             -0.4607112897      -14.8382205058       30.1430178236  SOLV      7940            0.0000000000
     23935      7952  TIP3      OH2             3.9543492568      -15.6031434602       29.5470166770  SOLV      7941            0.0000000000
     23936      7952  TIP3      H1              4.3127456245      -15.0566893200       28.8132095708  SOLV      7941            0.0000000000
     23937      7952  TIP3      H2              3.0079009036      -15.3690269468       29.5258454585  SOLV      7941            0.0000000000
     23938      7953  TIP3      OH2             4.9362619261      -14.6016659184       27.1998646233  SOLV      7942            0.0000000000
     23939      7953  TIP3      H1              5.6972193382      -15.1043457771       26.8429650490  SOLV      7942            0.0000000000
     23940      7953  TIP3      H2              5.2681862744      -13.6816866605       27.0772631488  SOLV      7942            0.0000000000
     23941      7954  TIP3      OH2            -8.6967498080      -17.2510144679       30.6776782934  SOLV      7943            0.0000000000
     23942      7954  TIP3      H1             -9.5781057606      -17.6699824899       30.7609759744  SOLV      7943            0.0000000000
     23943      7954  TIP3      H2             -8.1391965726      -18.0534310666       30.6704145661  SOLV      7943            0.0000000000
     23944      7955  TIP3      OH2           -10.8166688991      -18.5809954154       27.1789957316  SOLV      7944            0.0000000000
     23945      7955  TIP3      H1            -10.5463620772      -18.0073067363       26.4398346164  SOLV      7944            0.0000000000
     23946      7955  TIP3      H2            -11.1328448766      -17.9238994055       27.8353433769  SOLV      7944            0.0000000000
     23947      7956  TIP3      OH2            -4.2417188013      -17.0329938098       29.5016758968  SOLV      7945            0.0000000000
     23948      7956  TIP3      H1             -3.6943459697      -16.5183462044       28.8864728542  SOLV      7945            0.0000000000
     23949      7956  TIP3      H2             -4.0517039788      -16.6022042842       30.3465409495  SOLV      7945            0.0000000000
     23950      7957  TIP3      OH2             1.1207565254      -15.4761439888       29.3302183391  SOLV      7946            0.0000000000
     23951      7957  TIP3      H1              1.1319786139      -15.9047927620       28.4657180356  SOLV      7946            0.0000000000
     23952      7957  TIP3      H2              1.0090198513      -16.2552504551       29.9272643866  SOLV      7946            0.0000000000
     23953      7958  TIP3      OH2             1.4619906473      -16.2364770759       24.9806397261  SOLV      7947            0.0000000000
     23954      7958  TIP3      H1              0.6219438412      -15.7775073339       25.1799568208  SOLV      7947            0.0000000000
     23955      7958  TIP3      H2              1.3089846550      -17.0958891957       25.4274568721  SOLV      7947            0.0000000000
     23956      7959  TIP3      OH2           -13.7332858361       -2.7993405815       24.9377595840  SOLV      7948            0.0000000000
     23957      7959  TIP3      H1            -14.5943918744       -3.1266168946       24.6152232022  SOLV      7948            0.0000000000
     23958      7959  TIP3      H2            -13.7834134745       -1.8845115854       24.5905971230  SOLV      7948            0.0000000000
     23959      7960  TIP3      OH2            -9.6749608867      -17.0380149683       24.8240613846  SOLV      7949            0.0000000000
     23960      7960  TIP3      H1             -9.1985964537      -17.6438903497       24.2239579431  SOLV      7949            0.0000000000
     23961      7960  TIP3      H2             -8.9438839099      -16.4835692396       25.1632734926  SOLV      7949            0.0000000000
     23962      7961  TIP3      OH2            -4.5978604812      -15.2159888782       25.7992001525  SOLV      7950            0.0000000000
     23963      7961  TIP3      H1             -3.9944787126      -15.6748353327       26.4081501107  SOLV      7950            0.0000000000
     23964      7961  TIP3      H2             -4.3898600136      -14.2853374589       26.0413425764  SOLV      7950            0.0000000000
     23965      7962  TIP3      OH2            -5.9671771734       -1.0311062651       20.8059612043  SOLV      7951            0.0000000000
     23966      7962  TIP3      H1             -5.0957621540       -0.7907283171       20.4280171663  SOLV      7951            0.0000000000
     23967      7962  TIP3      H2             -6.1994326596       -1.7651946104       20.1915670233  SOLV      7951            0.0000000000
     23968      7963  TIP3      OH2             1.2336370464        0.2155846626       21.7569278889  SOLV      7952            0.0000000000
     23969      7963  TIP3      H1              1.1746963978       -0.7654368969       21.6596188347  SOLV      7952            0.0000000000
     23970      7963  TIP3      H2              0.7489604976        0.5033700234       20.9556308067  SOLV      7952            0.0000000000
     23971      7964  TIP3      OH2           -12.9468966073       -2.6645523357       21.3138405428  SOLV      7953            0.0000000000
     23972      7964  TIP3      H1            -12.9315151470       -2.4223608519       22.2494438014  SOLV      7953            0.0000000000
     23973      7964  TIP3      H2            -12.0659138252       -3.0878717493       21.1875213510  SOLV      7953            0.0000000000
     23974      7965  TIP3      OH2             3.4379447771        1.6431746790       33.5584726412  SOLV      7954            0.0000000000
     23975      7965  TIP3      H1              2.6579887189        1.3673042664       33.0348842861  SOLV      7954            0.0000000000
     23976      7965  TIP3      H2              3.2608277367        2.6016348235       33.6499121803  SOLV      7954            0.0000000000
     23977      7966  TIP3      OH2            16.1401965400       -4.6365393748       21.2134303865  SOLV      7955            0.0000000000
     23978      7966  TIP3      H1             15.8417248555       -3.7252002341       21.0153883243  SOLV      7955            0.0000000000
     23979      7966  TIP3      H2             15.3552000372       -5.1368385989       20.9364042919  SOLV      7955            0.0000000000
     23980      7967  TIP3      OH2            16.1373089091       -4.6396202182       25.1279425757  SOLV      7956            0.0000000000
     23981      7967  TIP3      H1             16.5092029675       -4.8355574306       26.0098179173  SOLV      7956            0.0000000000
     23982      7967  TIP3      H2             15.7116952767       -5.4817737473       24.9022870890  SOLV      7956            0.0000000000
     23983      7968  TIP3      OH2             9.0910401037       -5.7380014767       28.7306955910  SOLV      7957            0.0000000000
     23984      7968  TIP3      H1              9.3675675238       -6.4400069584       29.3492355383  SOLV      7957            0.0000000000
     23985      7968  TIP3      H2              9.8430590722       -5.1335776086       28.8012028388  SOLV      7957            0.0000000000
     23986      7969  TIP3      OH2            18.5857696721       -1.5867341773       21.9326891667  SOLV      7958            0.0000000000
     23987      7969  TIP3      H1             18.4314894508       -2.2597367598       22.6088964647  SOLV      7958            0.0000000000
     23988      7969  TIP3      H2             18.9006068022       -0.8322037227       22.4605586432  SOLV      7958            0.0000000000
     23989      7970  TIP3      OH2             8.8357604512       -1.5879879849       25.9203792956  SOLV      7959            0.0000000000
     23990      7970  TIP3      H1              8.7607307090       -2.5664596608       25.9282310980  SOLV      7959            0.0000000000
     23991      7970  TIP3      H2              9.8036757862       -1.4859364296       25.9031277570  SOLV      7959            0.0000000000
     23992      7971  TIP3      OH2             5.9179000655       -9.6031970830       23.7354499801  SOLV      7960            0.0000000000
     23993      7971  TIP3      H1              5.4600175746       -8.7771113079       23.9747888098  SOLV      7960            0.0000000000
     23994      7971  TIP3      H2              5.1843797377      -10.0881875147       23.3148026003  SOLV      7960            0.0000000000
     23995      7972  TIP3      OH2             6.4661358384       -6.6974883462       25.5987739160  SOLV      7961            0.0000000000
     23996      7972  TIP3      H1              6.9725945085       -7.4778582174       25.9192031333  SOLV      7961            0.0000000000
     23997      7972  TIP3      H2              7.1004767249       -6.2780003056       25.0021428365  SOLV      7961            0.0000000000
     23998      7973  TIP3      OH2            15.1132201096        3.0168116380       22.0938742986  SOLV      7962            0.0000000000
     23999      7973  TIP3      H1             15.5042213431        2.3014497311       21.5505930104  SOLV      7962            0.0000000000
     24000      7973  TIP3      H2             15.0174990651        2.5793871033       22.9489047094  SOLV      7962            0.0000000000
     24001      7974  TIP3      OH2            14.1018605551       -2.3566706098       25.5514639193  SOLV      7963            0.0000000000
     24002      7974  TIP3      H1             14.5275708372       -3.1304023416       25.1448205474  SOLV      7963            0.0000000000
     24003      7974  TIP3      H2             14.9161885044       -1.8755461342       25.8170764916  SOLV      7963            0.0000000000
     24004      7975  TIP3      OH2            24.3105485600       -9.1852433157       25.5301216661  SOLV      7964            0.0000000000
     24005      7975  TIP3      H1             24.5749038146       -8.3424386772       25.9503538049  SOLV      7964            0.0000000000
     24006      7975  TIP3      H2             24.5993571881       -9.0316628922       24.6109218410  SOLV      7964            0.0000000000
     24007      7976  TIP3      OH2            18.2297173565       -7.3814506169       25.8394478509  SOLV      7965            0.0000000000
     24008      7976  TIP3      H1             18.6658407240       -8.2215550885       26.0741851130  SOLV      7965            0.0000000000
     24009      7976  TIP3      H2             17.9209822345       -7.5793300345       24.9348069920  SOLV      7965            0.0000000000
     24010      7977  TIP3      OH2            11.6646281281      -10.7769219246       25.4957640006  SOLV      7966            0.0000000000
     24011      7977  TIP3      H1             11.4587968323      -10.0420162369       24.8806341209  SOLV      7966            0.0000000000
     24012      7977  TIP3      H2             11.1432995815      -11.4964983875       25.0794325571  SOLV      7966            0.0000000000
     24013      7978  TIP3      OH2            18.6044569353       -9.8823143238       21.6979324689  SOLV      7967            0.0000000000
     24014      7978  TIP3      H1             19.2975119479      -10.0121925678       22.3874947840  SOLV      7967            0.0000000000
     24015      7978  TIP3      H2             19.1532375609       -9.5142405737       20.9789522303  SOLV      7967            0.0000000000
     24016      7979  TIP3      OH2             7.9594978510       -8.7557870528       26.5879430578  SOLV      7968            0.0000000000
     24017      7979  TIP3      H1              8.7826568095       -8.9255861877       27.0847808708  SOLV      7968            0.0000000000
     24018      7979  TIP3      H2              8.1228865480       -9.3142015900       25.7979801646  SOLV      7968            0.0000000000
     24019      7980  TIP3      OH2            12.3576087529       -6.7888896446       24.5348028653  SOLV      7969            0.0000000000
     24020      7980  TIP3      H1             13.3010303414       -7.0276993490       24.6646122467  SOLV      7969            0.0000000000
     24021      7980  TIP3      H2             11.9795229105       -7.6353606740       24.2160078191  SOLV      7969            0.0000000000
     24022      7981  TIP3      OH2            25.0111832792       -7.0775404515       27.2475588844  SOLV      7970            0.0000000000
     24023      7981  TIP3      H1             24.1521341355       -6.6320137650       27.0890422906  SOLV      7970            0.0000000000
     24024      7981  TIP3      H2             25.2456335209       -6.7259093673       28.1258943704  SOLV      7970            0.0000000000
     24025      7982  TIP3      OH2            11.5839601958      -10.9581724293       29.8549025769  SOLV      7971            0.0000000000
     24026      7982  TIP3      H1             10.9911512541      -10.5590608180       29.1908969385  SOLV      7971            0.0000000000
     24027      7982  TIP3      H2             11.0572300646      -10.8019468010       30.6684929772  SOLV      7971            0.0000000000
     24028      7983  TIP3      OH2            14.9901833923       -2.4402638687       19.9159805353  SOLV      7972            0.0000000000
     24029      7983  TIP3      H1             14.5907209137       -2.5229176298       19.0382946953  SOLV      7972            0.0000000000
     24030      7983  TIP3      H2             14.5557411628       -1.6214385094       20.2376728978  SOLV      7972            0.0000000000
     24031      7984  TIP3      OH2            12.6485303131       -3.1701930740       27.7624357496  SOLV      7973            0.0000000000
     24032      7984  TIP3      H1             12.0615264922       -2.4797438073       28.1426769426  SOLV      7973            0.0000000000
     24033      7984  TIP3      H2             13.0777308564       -2.6869601397       27.0257611472  SOLV      7973            0.0000000000
     24034      7985  TIP3      OH2            20.5929929796       -9.7960618443       23.5420557624  SOLV      7974            0.0000000000
     24035      7985  TIP3      H1             20.3614158911      -10.1224903279       24.4236307796  SOLV      7974            0.0000000000
     24036      7985  TIP3      H2             21.1276983031       -9.0072499325       23.7600990292  SOLV      7974            0.0000000000
     24037      7986  TIP3      OH2            10.3087706791       -9.7833005066       27.6925688605  SOLV      7975            0.0000000000
     24038      7986  TIP3      H1             10.9141527201       -9.0530766606       27.9572222646  SOLV      7975            0.0000000000
     24039      7986  TIP3      H2             10.8258547107      -10.1737611401       26.9526227419  SOLV      7975            0.0000000000
     24040      7987  TIP3      OH2            10.9499423781       -1.1997880657       28.7835373310  SOLV      7976            0.0000000000
     24041      7987  TIP3      H1             10.6966683482       -0.3135218463       28.4524567073  SOLV      7976            0.0000000000
     24042      7987  TIP3      H2             10.1597904884       -1.3936501162       29.3329977319  SOLV      7976            0.0000000000
     24043      7988  TIP3      OH2             4.8305461807       -4.3206703584       21.1376158354  SOLV      7977            0.0000000000
     24044      7988  TIP3      H1              4.4206757483       -4.0387444579       20.2988693616  SOLV      7977            0.0000000000
     24045      7988  TIP3      H2              5.1555175468       -3.4657203707       21.4908407683  SOLV      7977            0.0000000000
     24046      7989  TIP3      OH2            19.2402640088        0.8544165474       23.5271296987  SOLV      7978            0.0000000000
     24047      7989  TIP3      H1             18.3474123456        0.7570077799       23.9311938444  SOLV      7978            0.0000000000
     24048      7989  TIP3      H2             19.1504934984        1.7243819322       23.0884538274  SOLV      7978            0.0000000000
     24049      7990  TIP3      OH2            22.2161226376      -10.1990764668       27.1598689094  SOLV      7979            0.0000000000
     24050      7990  TIP3      H1             21.3461853625       -9.9130213694       26.8370578723  SOLV      7979            0.0000000000
     24051      7990  TIP3      H2             22.8238432938       -9.8499459183       26.4747334992  SOLV      7979            0.0000000000
     24052      7991  TIP3      OH2            15.0645546659      -13.7851337546       27.0063244171  SOLV      7980            0.0000000000
     24053      7991  TIP3      H1             14.9277841483      -14.7245818042       27.2328677694  SOLV      7980            0.0000000000
     24054      7991  TIP3      H2             14.3201023147      -13.3734206212       27.4997672769  SOLV      7980            0.0000000000
     24055      7992  TIP3      OH2            16.2257674651        1.2735792685       20.2275898538  SOLV      7981            0.0000000000
     24056      7992  TIP3      H1             16.7314167794        0.4420975548       20.0670337890  SOLV      7981            0.0000000000
     24057      7992  TIP3      H2             16.8700988446        1.9190360378       19.8545366390  SOLV      7981            0.0000000000
     24058      7993  TIP3      OH2            17.6918982186       -0.8844020671       19.4237901871  SOLV      7982            0.0000000000
     24059      7993  TIP3      H1             17.3048170964       -1.6907832931       19.0627224615  SOLV      7982            0.0000000000
     24060      7993  TIP3      H2             18.0876785380       -1.2120576729       20.2628393237  SOLV      7982            0.0000000000
     24061      7994  TIP3      OH2            21.5154064779       -0.0777974443       26.9938002330  SOLV      7983            0.0000000000
     24062      7994  TIP3      H1             21.3789648090       -0.8477757315       26.3998141967  SOLV      7983            0.0000000000
     24063      7994  TIP3      H2             21.3233961798        0.6726119148       26.3918255817  SOLV      7983            0.0000000000
     24064      7995  TIP3      OH2            14.4173242342       -6.1515307632       19.5877812838  SOLV      7984            0.0000000000
     24065      7995  TIP3      H1             13.6336707196       -5.5894402670       19.4106676664  SOLV      7984            0.0000000000
     24066      7995  TIP3      H2             14.8943412358       -6.0984925419       18.7420020794  SOLV      7984            0.0000000000
     24067      7996  TIP3      OH2            14.0186199398       -8.2428790354       16.6621651343  SOLV      7985            0.0000000000
     24068      7996  TIP3      H1             14.6366857226       -7.7155756301       17.2015102215  SOLV      7985            0.0000000000
     24069      7996  TIP3      H2             14.6499213463       -8.8331946793       16.2007295853  SOLV      7985            0.0000000000
     24070      7997  TIP3      OH2            23.4504623640       -3.6779715568       25.4523072304  SOLV      7986            0.0000000000
     24071      7997  TIP3      H1             22.6140381182       -3.1644466103       25.4873749644  SOLV      7986            0.0000000000
     24072      7997  TIP3      H2             23.7691314950       -3.4257263949       24.5587037488  SOLV      7986            0.0000000000
     24073      7998  TIP3      OH2            17.9241229584       -5.3083160687       19.2552848250  SOLV      7987            0.0000000000
     24074      7998  TIP3      H1             17.3812116590       -5.0693319458       20.0432660216  SOLV      7987            0.0000000000
     24075      7998  TIP3      H2             18.7770760983       -5.5261843843       19.6890068895  SOLV      7987            0.0000000000
     24076      7999  TIP3      OH2            20.2471552261       -4.9170816960       28.4761722535  SOLV      7988            0.0000000000
     24077      7999  TIP3      H1             20.2264426976       -4.0954011254       29.0045572581  SOLV      7988            0.0000000000
     24078      7999  TIP3      H2             19.3885029982       -4.8552071333       28.0136348872  SOLV      7988            0.0000000000
     24079      8000  TIP3      OH2            10.2418254729       -5.3484938617       23.4621994088  SOLV      7989            0.0000000000
     24080      8000  TIP3      H1              9.8645042603       -5.9276822628       22.7695175796  SOLV      7989            0.0000000000
     24081      8000  TIP3      H2             11.0102705182       -5.8718296767       23.7760854175  SOLV      7989            0.0000000000
     24082      8001  TIP3      OH2            11.5501053023       -1.1789148796       24.9178362783  SOLV      7990            0.0000000000
     24083      8001  TIP3      H1             11.3547821143       -1.5267610387       24.0344326458  SOLV      7990            0.0000000000
     24084      8001  TIP3      H2             12.4353871837       -1.5596534806       25.0974769544  SOLV      7990            0.0000000000
     24085      8002  TIP3      OH2            11.6004431167       -5.6107290863       26.9856931257  SOLV      7991            0.0000000000
     24086      8002  TIP3      H1             11.9468256376       -5.8507359673       26.1027107696  SOLV      7991            0.0000000000
     24087      8002  TIP3      H2             12.0348733273       -4.7503656508       27.1678661322  SOLV      7991            0.0000000000
     24088      8003  TIP3      OH2            16.8480994032        0.7689780916       24.7709547083  SOLV      7992            0.0000000000
     24089      8003  TIP3      H1             16.7327374174        1.5763782102       25.3043889915  SOLV      7992            0.0000000000
     24090      8003  TIP3      H2             16.6753921130        0.0518134513       25.4121536574  SOLV      7992            0.0000000000
     24091      8004  TIP3      OH2            12.9999194246       -0.0416858260       30.2431608847  SOLV      7993            0.0000000000
     24092      8004  TIP3      H1             12.3806482681        0.5595476812       30.7114096740  SOLV      7993            0.0000000000
     24093      8004  TIP3      H2             12.3614841788       -0.5815178029       29.7335521921  SOLV      7993            0.0000000000
     24094      8005  TIP3      OH2            16.2976157825       -6.7120423226       17.5401612940  SOLV      7994            0.0000000000
     24095      8005  TIP3      H1             16.8917154910       -6.1026242031       18.0355881280  SOLV      7994            0.0000000000
     24096      8005  TIP3      H2             16.5666757248       -6.5146243289       16.6098426713  SOLV      7994            0.0000000000
     24097      8006  TIP3      OH2            10.5424585554       -4.4890190036       31.2365729185  SOLV      7995            0.0000000000
     24098      8006  TIP3      H1             10.6077800994       -3.6211436221       31.6839685745  SOLV      7995            0.0000000000
     24099      8006  TIP3      H2              9.6155990408       -4.7178547874       31.4542255461  SOLV      7995            0.0000000000
     24100      8007  TIP3      OH2            13.7776486531        0.0362783233       20.3030583967  SOLV      7996            0.0000000000
     24101      8007  TIP3      H1             14.6086915921        0.5503199381       20.3508090846  SOLV      7996            0.0000000000
     24102      8007  TIP3      H2             13.1778175690        0.6541494348       19.8666156902  SOLV      7996            0.0000000000
     24103      8008  TIP3      OH2            10.9148107680        1.5896647474       31.1271153385  SOLV      7997            0.0000000000
     24104      8008  TIP3      H1             10.5507284053        1.6395161032       30.2242330181  SOLV      7997            0.0000000000
     24105      8008  TIP3      H2             10.1129139283        1.3877792693       31.6611342896  SOLV      7997            0.0000000000
     24106      8009  TIP3      OH2            21.4374106175      -14.3348369338       18.0124497519  SOLV      7998            0.0000000000
     24107      8009  TIP3      H1             20.6593300751      -14.0631165045       18.5415778126  SOLV      7998            0.0000000000
     24108      8009  TIP3      H2             21.6380291050      -13.5044119416       17.5310031070  SOLV      7998            0.0000000000
     24109      8010  TIP3      OH2             8.9408290122       -6.9040608526       21.4025109720  SOLV      7999            0.0000000000
     24110      8010  TIP3      H1              8.2225615366       -6.4513643567       20.9097498988  SOLV      7999            0.0000000000
     24111      8010  TIP3      H2              8.5117416664       -7.7297206312       21.6506914958  SOLV      7999            0.0000000000
     24112      8011  TIP3      OH2            19.4810561343       -0.6672488396       13.5341112607  SOLV      8000            0.0000000000
     24113      8011  TIP3      H1             19.5615076022        0.2982779957       13.3734405812  SOLV      8000            0.0000000000
     24114      8011  TIP3      H2             20.4106581664       -0.9558628470       13.4072586502  SOLV      8000            0.0000000000
     24115      8012  TIP3      OH2             6.7029443835       -3.0484692952       30.5846294512  SOLV      8001            0.0000000000
     24116      8012  TIP3      H1              6.0293756369       -3.2756746049       29.9125292079  SOLV      8001            0.0000000000
     24117      8012  TIP3      H2              7.0976019955       -3.9178508193       30.8063589446  SOLV      8001            0.0000000000
     24118      8013  TIP3      OH2             5.2607279982       -1.1139215907       26.8677532401  SOLV      8002            0.0000000000
     24119      8013  TIP3      H1              6.2233504457       -1.1818049376       26.8050703589  SOLV      8002            0.0000000000
     24120      8013  TIP3      H2              5.1599798121       -0.3526326538       27.4591628239  SOLV      8002            0.0000000000
     24121      8014  TIP3      OH2            23.8827124075        3.4505267251       27.4492278037  SOLV      8003            0.0000000000
     24122      8014  TIP3      H1             23.8834358591        2.4831663773       27.5863773074  SOLV      8003            0.0000000000
     24123      8014  TIP3      H2             23.0376458101        3.6825975014       27.9044792917  SOLV      8003            0.0000000000
     24124      8015  TIP3      OH2            14.9272603287        1.2479607424       28.7981948489  SOLV      8004            0.0000000000
     24125      8015  TIP3      H1             14.8990457367        2.1697893248       29.1353889200  SOLV      8004            0.0000000000
     24126      8015  TIP3      H2             14.2260274680        0.8303809413       29.3471178968  SOLV      8004            0.0000000000
     24127      8016  TIP3      OH2            12.6081769611        2.5029781147       18.3409259053  SOLV      8005            0.0000000000
     24128      8016  TIP3      H1             12.1296583283        2.3423595914       17.5082883016  SOLV      8005            0.0000000000
     24129      8016  TIP3      H2             12.2568491029        3.3693255409       18.6217848717  SOLV      8005            0.0000000000
     24130      8017  TIP3      OH2             6.9576310161        1.0022533063       22.2015831088  SOLV      8006            0.0000000000
     24131      8017  TIP3      H1              7.4155176353        0.9165328699       23.0670646122  SOLV      8006            0.0000000000
     24132      8017  TIP3      H2              6.4619629270        0.1655708959       22.1684517904  SOLV      8006            0.0000000000
     24133      8018  TIP3      OH2            14.5729014486        1.5594729620       14.7046265777  SOLV      8007            0.0000000000
     24134      8018  TIP3      H1             15.1587185734        0.8556351518       14.3496692313  SOLV      8007            0.0000000000
     24135      8018  TIP3      H2             14.9262632710        1.6680083796       15.6129896526  SOLV      8007            0.0000000000
     24136      8019  TIP3      OH2            15.1053811721        2.0396360484       17.3961649587  SOLV      8008            0.0000000000
     24137      8019  TIP3      H1             14.2178405748        2.1337516297       17.8089495152  SOLV      8008            0.0000000000
     24138      8019  TIP3      H2             15.6174647443        1.6817075368       18.1396855771  SOLV      8008            0.0000000000
     24139      8020  TIP3      OH2            22.8029227115       -5.3263743874       30.2156901489  SOLV      8009            0.0000000000
     24140      8020  TIP3      H1             21.9409428931       -5.1764487417       29.7984256687  SOLV      8009            0.0000000000
     24141      8020  TIP3      H2             22.9182014928       -6.2878581082       30.0689967172  SOLV      8009            0.0000000000
     24142      8021  TIP3      OH2             8.7388101325       -1.2137573687       30.4030146385  SOLV      8010            0.0000000000
     24143      8021  TIP3      H1              9.2376996730       -1.3665040212       31.2314313133  SOLV      8010            0.0000000000
     24144      8021  TIP3      H2              7.9991657713       -1.8496106239       30.4991166010  SOLV      8010            0.0000000000
     24145      8022  TIP3      OH2            12.7392244028      -12.9960500689       28.3374222105  SOLV      8011            0.0000000000
     24146      8022  TIP3      H1             11.8507604419      -13.2859238915       28.0411606582  SOLV      8011            0.0000000000
     24147      8022  TIP3      H2             12.4799473452      -12.1961127674       28.8399594344  SOLV      8011            0.0000000000
     24148      8023  TIP3      OH2            18.1002461672      -11.8715880194       30.2685207260  SOLV      8012            0.0000000000
     24149      8023  TIP3      H1             18.8035803481      -12.1053486573       30.9086108653  SOLV      8012            0.0000000000
     24150      8023  TIP3      H2             17.2796507259      -12.0366792100       30.7745892380  SOLV      8012            0.0000000000
     24151      8024  TIP3      OH2            20.3309161082       -7.5543264496       29.4209349193  SOLV      8013            0.0000000000
     24152      8024  TIP3      H1             19.8609400977       -7.5755645702       30.2870474912  SOLV      8013            0.0000000000
     24153      8024  TIP3      H2             20.1488205180       -6.6485942217       29.1034060805  SOLV      8013            0.0000000000
     24154      8025  TIP3      OH2            17.0330229452       -6.3586450755       14.9609626501  SOLV      8014            0.0000000000
     24155      8025  TIP3      H1             16.7181824584       -6.5307529030       14.0544000420  SOLV      8014            0.0000000000
     24156      8025  TIP3      H2             17.8753821895       -5.8968370639       14.7730003040  SOLV      8014            0.0000000000
     24157      8026  TIP3      OH2            14.1666659485      -12.5169665713       18.0281548521  SOLV      8015            0.0000000000
     24158      8026  TIP3      H1             13.8681057999      -12.5455742607       18.9585897838  SOLV      8015            0.0000000000
     24159      8026  TIP3      H2             13.7172326403      -13.3095169095       17.6762335438  SOLV      8015            0.0000000000
     24160      8027  TIP3      OH2            12.0581766150       -7.8186000052       28.5019884846  SOLV      8016            0.0000000000
     24161      8027  TIP3      H1             11.5738756416       -7.6005437187       29.3253443090  SOLV      8016            0.0000000000
     24162      8027  TIP3      H2             11.9010119075       -7.0018149875       27.9748958396  SOLV      8016            0.0000000000
     24163      8028  TIP3      OH2            10.9018139409       -8.9746402083       23.6259972297  SOLV      8017            0.0000000000
     24164      8028  TIP3      H1              9.9758333201       -9.2224435058       23.8368780370  SOLV      8017            0.0000000000
     24165      8028  TIP3      H2             10.9994321691       -9.4089028736       22.7500176327  SOLV      8017            0.0000000000
     24166      8029  TIP3      OH2            15.7960739627       -8.1561735808       20.9164179333  SOLV      8018            0.0000000000
     24167      8029  TIP3      H1             15.3004120336       -7.4267742736       20.4828999265  SOLV      8018            0.0000000000
     24168      8029  TIP3      H2             16.3664392653       -8.4683180627       20.1883127471  SOLV      8018            0.0000000000
     24169      8030  TIP3      OH2            17.5591590114       -5.3662570430       31.7274865324  SOLV      8019            0.0000000000
     24170      8030  TIP3      H1             17.3387548166       -6.0834239697       32.3638964922  SOLV      8019            0.0000000000
     24171      8030  TIP3      H2             18.4990057469       -5.2203127618       31.9576666828  SOLV      8019            0.0000000000
     24172      8031  TIP3      OH2            17.3627438698       -7.8862255696       23.2894441053  SOLV      8020            0.0000000000
     24173      8031  TIP3      H1             16.7312379096       -7.5793670173       22.6091176750  SOLV      8020            0.0000000000
     24174      8031  TIP3      H2             17.7118210043       -8.6705987359       22.8186343006  SOLV      8020            0.0000000000
     24175      8032  TIP3      OH2            10.2561861568       -7.5692216116       30.5880367644  SOLV      8021            0.0000000000
     24176      8032  TIP3      H1             10.5712593916       -6.9371581223       31.2515958633  SOLV      8021            0.0000000000
     24177      8032  TIP3      H2             10.1626979930       -8.3882490063       31.1129874472  SOLV      8021            0.0000000000
     24178      8033  TIP3      OH2            10.7333250811      -12.8055571401       17.6938929302  SOLV      8022            0.0000000000
     24179      8033  TIP3      H1             10.6338785163      -12.7913038088       18.6674901220  SOLV      8022            0.0000000000
     24180      8033  TIP3      H2              9.9818055285      -12.2330966458       17.4357076484  SOLV      8022            0.0000000000
     24181      8034  TIP3      OH2             6.2042942146      -12.3785039832       26.3827751113  SOLV      8023            0.0000000000
     24182      8034  TIP3      H1              6.9132807359      -12.0181573531       26.9564470034  SOLV      8023            0.0000000000
     24183      8034  TIP3      H2              6.6740094538      -12.6222565303       25.5758137924  SOLV      8023            0.0000000000
     24184      8035  TIP3      OH2             5.8156892149      -12.5311989939       21.5537664755  SOLV      8024            0.0000000000
     24185      8035  TIP3      H1              6.2761707812      -12.1593697781       20.7724631994  SOLV      8024            0.0000000000
     24186      8035  TIP3      H2              5.2122399526      -11.7898135937       21.7568241110  SOLV      8024            0.0000000000
     24187      8036  TIP3      OH2            17.4493554492       -5.4053165643       27.4909047793  SOLV      8025            0.0000000000
     24188      8036  TIP3      H1             17.7942220628       -6.1161225397       26.9015111394  SOLV      8025            0.0000000000
     24189      8036  TIP3      H2             17.1499081970       -5.9490366926       28.2514839236  SOLV      8025            0.0000000000
     24190      8037  TIP3      OH2            14.2022339806      -10.8165866385       24.1983143645  SOLV      8026            0.0000000000
     24191      8037  TIP3      H1             13.4060549603      -10.7824573358       24.7662768012  SOLV      8026            0.0000000000
     24192      8037  TIP3      H2             14.9171012593      -10.8393375028       24.8587711717  SOLV      8026            0.0000000000
     24193      8038  TIP3      OH2             8.5208146742      -10.1635081986       24.2918725252  SOLV      8027            0.0000000000
     24194      8038  TIP3      H1              7.5766960801      -10.0796343135       24.0134584897  SOLV      8027            0.0000000000
     24195      8038  TIP3      H2              8.7281171677      -11.0933606158       24.0887624502  SOLV      8027            0.0000000000
     24196      8039  TIP3      OH2            11.1651672341      -10.2976162973       21.2430961941  SOLV      8028            0.0000000000
     24197      8039  TIP3      H1             12.0925652709      -10.0627646378       21.0473047344  SOLV      8028            0.0000000000
     24198      8039  TIP3      H2             10.6893736512      -10.0488233205       20.4154551298  SOLV      8028            0.0000000000
     24199      8040  TIP3      OH2            19.1173015418       -9.9944808454       26.2175494601  SOLV      8029            0.0000000000
     24200      8040  TIP3      H1             18.8528582096       -9.8633671611       27.1600875118  SOLV      8029            0.0000000000
     24201      8040  TIP3      H2             18.4018313528      -10.5782845619       25.9191198204  SOLV      8029            0.0000000000
     24202      8041  TIP3      OH2             9.7189386020       -9.9288923151       18.9888826760  SOLV      8030            0.0000000000
     24203      8041  TIP3      H1              8.9671171730      -10.3202531896       18.5120593884  SOLV      8030            0.0000000000
     24204      8041  TIP3      H2             10.2162990237       -9.5255609761       18.2463245650  SOLV      8030            0.0000000000
     24205      8042  TIP3      OH2            20.8051230592        6.8827333140       28.4906716617  SOLV      8031            0.0000000000
     24206      8042  TIP3      H1             20.7755507849        7.1473670084       27.5553580547  SOLV      8031            0.0000000000
     24207      8042  TIP3      H2             21.6385262622        7.3173443334       28.7752350677  SOLV      8031            0.0000000000
     24208      8043  TIP3      OH2            10.3908170461       -1.9865996064       32.6160397146  SOLV      8032            0.0000000000
     24209      8043  TIP3      H1             11.1792218919       -1.7087094184       33.1227671017  SOLV      8032            0.0000000000
     24210      8043  TIP3      H2              9.7390369709       -2.0593353812       33.3426456972  SOLV      8032            0.0000000000
     24211      8044  TIP3      OH2            14.9804106997       -7.4646676685       25.2204842256  SOLV      8033            0.0000000000
     24212      8044  TIP3      H1             15.7700900427       -7.8255914727       24.7911200660  SOLV      8033            0.0000000000
     24213      8044  TIP3      H2             15.0099983253       -7.8840362622       26.1025581821  SOLV      8033            0.0000000000
     24214      8045  TIP3      OH2            10.1519078327      -12.6043237726       24.0763479840  SOLV      8034            0.0000000000
     24215      8045  TIP3      H1              9.7697177599      -13.3495299771       24.5923699699  SOLV      8034            0.0000000000
     24216      8045  TIP3      H2             10.6494379812      -13.0785428535       23.3993271261  SOLV      8034            0.0000000000
     24217      8046  TIP3      OH2            14.7605885757       -8.4125977767       28.0663329046  SOLV      8035            0.0000000000
     24218      8046  TIP3      H1             13.8601014432       -8.0762446468       28.2500358057  SOLV      8035            0.0000000000
     24219      8046  TIP3      H2             15.3291087326       -7.8165156953       28.5930914897  SOLV      8035            0.0000000000
     24220      8047  TIP3      OH2            12.1409384911       -4.6190022723       19.0625538759  SOLV      8036            0.0000000000
     24221      8047  TIP3      H1             11.4066463155       -5.2567044763       18.9345634809  SOLV      8036            0.0000000000
     24222      8047  TIP3      H2             11.9219570638       -4.2638327204       19.9603917881  SOLV      8036            0.0000000000
     24223      8048  TIP3      OH2            21.1119279670       -2.2251434453       25.3130069998  SOLV      8037            0.0000000000
     24224      8048  TIP3      H1             21.3533804435       -1.7073424251       24.5154756084  SOLV      8037            0.0000000000
     24225      8048  TIP3      H2             20.2741125552       -2.6572595669       25.0365310991  SOLV      8037            0.0000000000
     24226      8049  TIP3      OH2            16.7105538379      -11.5015150279       17.6579827137  SOLV      8038            0.0000000000
     24227      8049  TIP3      H1             15.7470611069      -11.6450786204       17.7874831535  SOLV      8038            0.0000000000
     24228      8049  TIP3      H2             16.8397192641      -10.5716647824       17.9426282825  SOLV      8038            0.0000000000
     24229      8050  TIP3      OH2            16.0936181765       -1.4140359284       29.0441816943  SOLV      8039            0.0000000000
     24230      8050  TIP3      H1             16.4669991630       -1.5738791799       29.9202945485  SOLV      8039            0.0000000000
     24231      8050  TIP3      H2             15.7320052323       -0.5151874555       29.1238447412  SOLV      8039            0.0000000000
     24232      8051  TIP3      OH2            17.4014494671       -9.0197047684       18.7199658657  SOLV      8040            0.0000000000
     24233      8051  TIP3      H1             18.3591545519       -8.9385825366       18.9069496316  SOLV      8040            0.0000000000
     24234      8051  TIP3      H2             17.2124606308       -8.1885537483       18.2408361167  SOLV      8040            0.0000000000
     24235      8052  TIP3      OH2             9.0613989643       -4.3656734870       25.7986543766  SOLV      8041            0.0000000000
     24236      8052  TIP3      H1              9.4624292644       -4.6720802973       24.9600817030  SOLV      8041            0.0000000000
     24237      8052  TIP3      H2              9.5242832660       -4.9126871839       26.4533109688  SOLV      8041            0.0000000000
     24238      8053  TIP3      OH2            13.5738286886       -3.1121696633       17.2877053246  SOLV      8042            0.0000000000
     24239      8053  TIP3      H1             13.0846235307       -2.2547418641       17.3041659806  SOLV      8042            0.0000000000
     24240      8053  TIP3      H2             13.0365987000       -3.6453256367       17.9133441847  SOLV      8042            0.0000000000
     24241      8054  TIP3      OH2             7.9233078959       -5.1631572037       31.9447587682  SOLV      8043            0.0000000000
     24242      8054  TIP3      H1              8.1308428833       -5.2459321013       32.8975054269  SOLV      8043            0.0000000000
     24243      8054  TIP3      H2              7.2240486214       -5.8301244234       31.8442881206  SOLV      8043            0.0000000000
     24244      8055  TIP3      OH2            15.1650476627       -3.9891636475       32.1092914900  SOLV      8044            0.0000000000
     24245      8055  TIP3      H1             14.5411623530       -4.6389216413       31.7487586096  SOLV      8044            0.0000000000
     24246      8055  TIP3      H2             16.0247842682       -4.3683013522       31.8255553728  SOLV      8044            0.0000000000
     24247      8056  TIP3      OH2            17.6959824667        1.1881431561       28.0094457732  SOLV      8045            0.0000000000
     24248      8056  TIP3      H1             16.7335814360        1.1896790264       28.1567931428  SOLV      8045            0.0000000000
     24249      8056  TIP3      H2             17.9971070230        1.7147176533       28.7816271361  SOLV      8045            0.0000000000
     24250      8057  TIP3      OH2            21.7048883834       -8.0370499119       17.1225140070  SOLV      8046            0.0000000000
     24251      8057  TIP3      H1             21.1151972736       -8.4758976212       16.4654317223  SOLV      8046            0.0000000000
     24252      8057  TIP3      H2             21.7090871483       -7.1431464653       16.7136365965  SOLV      8046            0.0000000000
     24253      8058  TIP3      OH2            24.0210587835        0.5485671776       27.8458150527  SOLV      8047            0.0000000000
     24254      8058  TIP3      H1             23.0436556588        0.4646654222       27.7829865305  SOLV      8047            0.0000000000
     24255      8058  TIP3      H2             24.2739022193        0.2274023472       26.9498030312  SOLV      8047            0.0000000000
     24256      8059  TIP3      OH2            18.8433956876        0.1206815665       16.1831004750  SOLV      8048            0.0000000000
     24257      8059  TIP3      H1             18.5623718821       -0.5705494592       16.7984670756  SOLV      8048            0.0000000000
     24258      8059  TIP3      H2             18.9714105621       -0.3627680539       15.3476668699  SOLV      8048            0.0000000000
     24259      8060  TIP3      OH2            18.7790044850       -3.5814501307       24.4561919964  SOLV      8049            0.0000000000
     24260      8060  TIP3      H1             17.8456279358       -3.8208684651       24.6141759816  SOLV      8049            0.0000000000
     24261      8060  TIP3      H2             19.1054361705       -4.3999058142       24.0318650079  SOLV      8049            0.0000000000
     24262      8061  TIP3      OH2            10.0938999224       -1.3059111522       22.0578785232  SOLV      8050            0.0000000000
     24263      8061  TIP3      H1             10.0323685375       -0.5000309845       21.5083855404  SOLV      8050            0.0000000000
     24264      8061  TIP3      H2              9.1641636330       -1.4980714244       22.2202302048  SOLV      8050            0.0000000000
     24265      8062  TIP3      OH2             5.7541296582       -8.3090566863       19.1662179147  SOLV      8051            0.0000000000
     24266      8062  TIP3      H1              6.1723316264       -7.4451310358       19.3679441824  SOLV      8051            0.0000000000
     24267      8062  TIP3      H2              4.9706435806       -8.2725049888       19.7604746367  SOLV      8051            0.0000000000
     24268      8063  TIP3      OH2            11.3599301386       -3.7040625776       21.4635007593  SOLV      8052            0.0000000000
     24269      8063  TIP3      H1             11.0456428503       -2.7995492847       21.6649391585  SOLV      8052            0.0000000000
     24270      8063  TIP3      H2             11.0341310664       -4.1996535791       22.2367690097  SOLV      8052            0.0000000000
     24271      8064  TIP3      OH2            12.7929571340        2.0979062983       26.7450600379  SOLV      8053            0.0000000000
     24272      8064  TIP3      H1             13.2353159698        2.8223278890       26.2557578986  SOLV      8053            0.0000000000
     24273      8064  TIP3      H2             13.5436102312        1.7158709129       27.2298822307  SOLV      8053            0.0000000000
     24274      8065  TIP3      OH2             9.2404461573        1.0750957291       20.5759384066  SOLV      8054            0.0000000000
     24275      8065  TIP3      H1              8.3928685620        1.1730263698       21.0538019382  SOLV      8054            0.0000000000
     24276      8065  TIP3      H2              9.5769083865        1.9988900163       20.6088121209  SOLV      8054            0.0000000000
     24277      8066  TIP3      OH2            16.6017193790       -1.5571793047       26.3697770291  SOLV      8055            0.0000000000
     24278      8066  TIP3      H1             16.4764940360       -1.5651923765       27.3463370318  SOLV      8055            0.0000000000
     24279      8066  TIP3      H2             17.4232515258       -2.0586770467       26.2823148369  SOLV      8055            0.0000000000
     24280      8067  TIP3      OH2            16.4325161732       -2.6004185263       15.1996402220  SOLV      8056            0.0000000000
     24281      8067  TIP3      H1             16.9651518570       -2.8677830533       15.9849839740  SOLV      8056            0.0000000000
     24282      8067  TIP3      H2             15.5449684367       -2.8631696745       15.4851105704  SOLV      8056            0.0000000000
     24283      8068  TIP3      OH2            19.1171177716        3.7290189164       26.8320286942  SOLV      8057            0.0000000000
     24284      8068  TIP3      H1             18.3060447594        3.1858230271       26.7950433701  SOLV      8057            0.0000000000
     24285      8068  TIP3      H2             18.9400888742        4.3808303480       26.1184852575  SOLV      8057            0.0000000000
     24286      8069  TIP3      OH2            19.7697762548        2.0918278044       13.3547556275  SOLV      8058            0.0000000000
     24287      8069  TIP3      H1             20.1065073658        2.8250776199       12.8151706264  SOLV      8058            0.0000000000
     24288      8069  TIP3      H2             18.9748912714        2.5252133356       13.7301712057  SOLV      8058            0.0000000000
     24289      8070  TIP3      OH2             9.9660564250      -10.1523059124       31.9657646612  SOLV      8059            0.0000000000
     24290      8070  TIP3      H1              9.0133589151      -10.1198543557       32.1658235864  SOLV      8059            0.0000000000
     24291      8070  TIP3      H2             10.3182017326      -10.5812807461       32.7632574857  SOLV      8059            0.0000000000
     24292      8071  TIP3      OH2            18.0353070974       -3.3194872055       17.3192584763  SOLV      8060            0.0000000000
     24293      8071  TIP3      H1             17.9374481092       -3.9612909364       18.0502523590  SOLV      8060            0.0000000000
     24294      8071  TIP3      H2             19.0097748536       -3.3400847036       17.2037094467  SOLV      8060            0.0000000000
     24295      8072  TIP3      OH2             7.1554509483        0.7003373994       28.3314835823  SOLV      8061            0.0000000000
     24296      8072  TIP3      H1              7.7060572004       -0.0161713112       28.6906806913  SOLV      8061            0.0000000000
     24297      8072  TIP3      H2              7.3841988947        1.4225236458       28.9298261165  SOLV      8061            0.0000000000
     24298      8073  TIP3      OH2            10.0596358677       -2.8176313677       15.1877492407  SOLV      8062            0.0000000000
     24299      8073  TIP3      H1             10.1621166437       -3.7554628156       14.9438644144  SOLV      8062            0.0000000000
     24300      8073  TIP3      H2              9.8411448284       -2.8898946235       16.1386878676  SOLV      8062            0.0000000000
     24301      8074  TIP3      OH2             9.4864057198       -2.7621220460       17.8977483934  SOLV      8063            0.0000000000
     24302      8074  TIP3      H1             10.2216502261       -3.0087429290       18.4749580138  SOLV      8063            0.0000000000
     24303      8074  TIP3      H2              9.5004516025       -1.7803777473       17.9700838832  SOLV      8063            0.0000000000
     24304      8075  TIP3      OH2             6.8066421542       -5.8447120323       19.9585937854  SOLV      8064            0.0000000000
     24305      8075  TIP3      H1              6.1358655860       -5.3939988597       20.5160343541  SOLV      8064            0.0000000000
     24306      8075  TIP3      H2              6.9231777094       -5.1669143450       19.2627541484  SOLV      8064            0.0000000000
     24307      8076  TIP3      OH2            18.4190133636       -9.5535489941       28.8026271114  SOLV      8065            0.0000000000
     24308      8076  TIP3      H1             19.1495981836       -9.0658191396       29.2228294530  SOLV      8065            0.0000000000
     24309      8076  TIP3      H2             18.2957131808      -10.3184713603       29.4047864245  SOLV      8065            0.0000000000
     24310      8077  TIP3      OH2            17.2387360331      -12.0239028182       20.5656059693  SOLV      8066            0.0000000000
     24311      8077  TIP3      H1             17.1344167320      -11.7506856062       19.6373938145  SOLV      8066            0.0000000000
     24312      8077  TIP3      H2             17.6447209220      -11.2181730612       20.9613852996  SOLV      8066            0.0000000000
     24313      8078  TIP3      OH2            12.1724720657       -0.8087426477       17.3725986076  SOLV      8067            0.0000000000
     24314      8078  TIP3      H1             11.2992834266       -0.5837954941       17.7492266457  SOLV      8067            0.0000000000
     24315      8078  TIP3      H2             12.3136208932       -0.0356444537       16.8038096251  SOLV      8067            0.0000000000
     24316      8079  TIP3      OH2            13.9813499132      -10.1615189129       21.5128641367  SOLV      8068            0.0000000000
     24317      8079  TIP3      H1             14.6212296895       -9.4312671536       21.3603688952  SOLV      8068            0.0000000000
     24318      8079  TIP3      H2             14.0588498300      -10.2750957493       22.4863607617  SOLV      8068            0.0000000000
     24319      8080  TIP3      OH2            16.7602800402       -7.0002060634       29.5895585423  SOLV      8069            0.0000000000
     24320      8080  TIP3      H1             16.9840887250       -6.4486363425       30.3687383642  SOLV      8069            0.0000000000
     24321      8080  TIP3      H2             17.2627643635       -7.8109552687       29.7686741931  SOLV      8069            0.0000000000
     24322      8081  TIP3      OH2            15.4684813148      -12.9714239016       22.5347646386  SOLV      8070            0.0000000000
     24323      8081  TIP3      H1             15.4476941144      -12.2341769434       23.1758956263  SOLV      8070            0.0000000000
     24324      8081  TIP3      H2             16.1095224875      -12.6158584898       21.8761917496  SOLV      8070            0.0000000000
     24325      8082  TIP3      OH2             9.6350616185       -0.0528122339       18.0909699270  SOLV      8071            0.0000000000
     24326      8082  TIP3      H1              9.3313768480        0.6488938644       17.4720543525  SOLV      8071            0.0000000000
     24327      8082  TIP3      H2              9.4634912758        0.3737449745       18.9599295348  SOLV      8071            0.0000000000
     24328      8083  TIP3      OH2            10.6436788762      -12.9045135781       20.4390948603  SOLV      8072            0.0000000000
     24329      8083  TIP3      H1             10.5544868249      -12.0078689677       20.8246263795  SOLV      8072            0.0000000000
     24330      8083  TIP3      H2             11.6072000039      -13.0273265351       20.5565853623  SOLV      8072            0.0000000000
     24331      8084  TIP3      OH2            23.0044469840       -7.9712971846       29.3974026226  SOLV      8073            0.0000000000
     24332      8084  TIP3      H1             22.0221529331       -7.9891485691       29.4620391963  SOLV      8073            0.0000000000
     24333      8084  TIP3      H2             23.1240609682       -8.4296801515       28.5535599717  SOLV      8073            0.0000000000
     24334      8085  TIP3      OH2            19.6393344787       -6.0436290697       23.3004831072  SOLV      8074            0.0000000000
     24335      8085  TIP3      H1             18.8824305027       -6.6352079657       23.4512641800  SOLV      8074            0.0000000000
     24336      8085  TIP3      H2             20.3602246296       -6.5017604962       23.7842198116  SOLV      8074            0.0000000000
     24337      8086  TIP3      OH2             6.7856184564       -3.8168148543       17.9886866843  SOLV      8075            0.0000000000
     24338      8086  TIP3      H1              7.4720220794       -3.1298568153       18.0733552741  SOLV      8075            0.0000000000
     24339      8086  TIP3      H2              7.2203892390       -4.3853870753       17.3153353287  SOLV      8075            0.0000000000
     24340      8087  TIP3      OH2             6.1745501682      -11.0175786415       19.2749912718  SOLV      8076            0.0000000000
     24341      8087  TIP3      H1              6.2332043114      -10.0402804001       19.3000298785  SOLV      8076            0.0000000000
     24342      8087  TIP3      H2              5.2882284739      -11.1408829417       18.9170008077  SOLV      8076            0.0000000000
     24343      8088  TIP3      OH2            19.3401856959        3.5521777738       22.7561153057  SOLV      8077            0.0000000000
     24344      8088  TIP3      H1             18.9090607519        4.0239210855       22.0079138918  SOLV      8077            0.0000000000
     24345      8088  TIP3      H2             20.2847398689        3.7333125089       22.5462830275  SOLV      8077            0.0000000000
     24346      8089  TIP3      OH2            10.1035366378      -13.7981181787       28.0128966702  SOLV      8078            0.0000000000
     24347      8089  TIP3      H1              9.7914068005      -14.1581270748       27.1576319954  SOLV      8078            0.0000000000
     24348      8089  TIP3      H2              9.9995033582      -14.5678330368       28.6101217988  SOLV      8078            0.0000000000
     24349      8090  TIP3      OH2             5.4263352007       -1.6268312041       21.7972204916  SOLV      8079            0.0000000000
     24350      8090  TIP3      H1              4.8279331540       -1.3260198390       22.4954274060  SOLV      8079            0.0000000000
     24351      8090  TIP3      H2              5.0492704232       -1.1720791782       21.0045740934  SOLV      8079            0.0000000000
     24352      8091  TIP3      OH2             7.0986908149        3.9193874753       32.5437504955  SOLV      8080            0.0000000000
     24353      8091  TIP3      H1              7.9471711412        3.9572225177       33.0417574727  SOLV      8080            0.0000000000
     24354      8091  TIP3      H2              6.9200051310        2.9656061130       32.5747857127  SOLV      8080            0.0000000000
     24355      8092  TIP3      OH2            11.8452007489        3.3911720684       33.0288375724  SOLV      8081            0.0000000000
     24356      8092  TIP3      H1             12.7936523091        3.2008291656       33.0455606310  SOLV      8081            0.0000000000
     24357      8092  TIP3      H2             11.5533849802        2.7826261504       32.3201327348  SOLV      8081            0.0000000000
     24358      8093  TIP3      OH2            11.6710522872       -0.7918787963       14.2539866597  SOLV      8082            0.0000000000
     24359      8093  TIP3      H1             11.1304474864       -1.5204634982       14.6399042655  SOLV      8082            0.0000000000
     24360      8093  TIP3      H2             12.4287724767       -1.2918830074       13.9016320762  SOLV      8082            0.0000000000
     24361      8094  TIP3      OH2            18.2705740964        2.5428920601       30.3291044443  SOLV      8083            0.0000000000
     24362      8094  TIP3      H1             18.1663828154        1.8407063934       31.0125581795  SOLV      8083            0.0000000000
     24363      8094  TIP3      H2             19.0622721991        3.0202785718       30.6473003958  SOLV      8083            0.0000000000
     24364      8095  TIP3      OH2            16.0215003467       -0.4198225363       13.4254139809  SOLV      8084            0.0000000000
     24365      8095  TIP3      H1             16.4498135479       -1.0556577894       14.0299245532  SOLV      8084            0.0000000000
     24366      8095  TIP3      H2             16.5828592800       -0.4678046261       12.6273267443  SOLV      8084            0.0000000000
     24367      8096  TIP3      OH2             8.3921981158       -2.0859838332       34.5412543336  SOLV      8085            0.0000000000
     24368      8096  TIP3      H1              8.5101273964       -3.0339338161       34.7341894789  SOLV      8085            0.0000000000
     24369      8096  TIP3      H2              7.4980234448       -2.0797554205       34.1403978135  SOLV      8085            0.0000000000
     24370      8097  TIP3      OH2             8.1545796377       -5.6595280294       16.5519122545  SOLV      8086            0.0000000000
     24371      8097  TIP3      H1              8.7383955176       -5.9050552057       17.2925214429  SOLV      8086            0.0000000000
     24372      8097  TIP3      H2              8.8155986706       -5.5891676492       15.8281502357  SOLV      8086            0.0000000000
     24373      8098  TIP3      OH2            14.4210865020       -1.2384510047       32.3226737665  SOLV      8087            0.0000000000
     24374      8098  TIP3      H1             14.0206113282       -1.0215289019       31.4563008883  SOLV      8087            0.0000000000
     24375      8098  TIP3      H2             14.7317603377       -2.1594743186       32.1911836804  SOLV      8087            0.0000000000
     24376      8099  TIP3      OH2            13.3290912545       -3.6473879264       14.6037660461  SOLV      8088            0.0000000000
     24377      8099  TIP3      H1             13.3253336952       -3.5215938363       15.5750455267  SOLV      8088            0.0000000000
     24378      8099  TIP3      H2             13.2690783089       -4.6242839755       14.5462608175  SOLV      8088            0.0000000000
     24379      8100  TIP3      OH2            19.3346160983       -1.1137082430       28.3853609010  SOLV      8089            0.0000000000
     24380      8100  TIP3      H1             20.1119215267       -0.7024419675       27.9606222638  SOLV      8089            0.0000000000
     24381      8100  TIP3      H2             18.6580551763       -0.4259723689       28.2262581989  SOLV      8089            0.0000000000
     24382      8101  TIP3      OH2             9.6291508775       -4.7458883577       34.3499561826  SOLV      8090            0.0000000000
     24383      8101  TIP3      H1             10.2282951666       -5.4970657989       34.2676908197  SOLV      8090            0.0000000000
     24384      8101  TIP3      H2              9.9353368200       -4.3964544994       35.2137633895  SOLV      8090            0.0000000000
     24385      8102  TIP3      OH2            10.1672976383       -6.5470334380       18.7112023373  SOLV      8091            0.0000000000
     24386      8102  TIP3      H1              9.8840035659       -6.8935085252       19.5759993979  SOLV      8091            0.0000000000
     24387      8102  TIP3      H2             10.5477547289       -7.3353552013       18.2766222277  SOLV      8091            0.0000000000
     24388      8103  TIP3      OH2            12.8983259153       -5.9483354416       30.9876811053  SOLV      8092            0.0000000000
     24389      8103  TIP3      H1             12.1239212733       -5.3451495430       30.9911090425  SOLV      8092            0.0000000000
     24390      8103  TIP3      H2             13.4262151822       -5.5896323113       30.2360942192  SOLV      8092            0.0000000000
     24391      8104  TIP3      OH2            11.2402671623       -8.6418552346       17.1101627018  SOLV      8093            0.0000000000
     24392      8104  TIP3      H1             10.9817673898       -8.5110231937       16.1751861919  SOLV      8093            0.0000000000
     24393      8104  TIP3      H2             12.2167154954       -8.5892181444       17.0405454909  SOLV      8093            0.0000000000
     24394      8105  TIP3      OH2            18.0832402897       -1.9224184789       32.3325303326  SOLV      8094            0.0000000000
     24395      8105  TIP3      H1             18.8622466133       -2.2622436998       31.8755315659  SOLV      8094            0.0000000000
     24396      8105  TIP3      H2             18.0003878746       -2.5498092759       33.0750080436  SOLV      8094            0.0000000000
     24397      8106  TIP3      OH2            19.3731605030       -5.3705450112       13.8331125650  SOLV      8095            0.0000000000
     24398      8106  TIP3      H1             19.2072445078       -5.7749893227       12.9585612703  SOLV      8095            0.0000000000
     24399      8106  TIP3      H2             19.0515720987       -4.4576046856       13.6416760958  SOLV      8095            0.0000000000
     24400      8107  TIP3      OH2            14.1637945701       -8.0298670568       32.2155706396  SOLV      8096            0.0000000000
     24401      8107  TIP3      H1             14.1455689875       -8.8177195618       31.6373973195  SOLV      8096            0.0000000000
     24402      8107  TIP3      H2             13.6924460456       -7.3595736911       31.6724193674  SOLV      8096            0.0000000000
     24403      8108  TIP3      OH2            14.1677710225      -10.1711352874       30.3267259311  SOLV      8097            0.0000000000
     24404      8108  TIP3      H1             14.4444705303       -9.7468063206       29.4934083422  SOLV      8097            0.0000000000
     24405      8108  TIP3      H2             13.2286139231      -10.3870650038       30.1443191155  SOLV      8097            0.0000000000
     24406      8109  TIP3      OH2            14.3849375483       -4.8680579911       29.0364483092  SOLV      8098            0.0000000000
     24407      8109  TIP3      H1             15.2624107641       -4.6487798792       28.6974143470  SOLV      8098            0.0000000000
     24408      8109  TIP3      H2             13.8184985720       -4.2034562366       28.5895531414  SOLV      8098            0.0000000000
     24409      8110  TIP3      OH2            20.1708682442       -5.1734978683       32.7884569194  SOLV      8099            0.0000000000
     24410      8110  TIP3      H1             20.5977177334       -5.8412596825       33.3695438761  SOLV      8099            0.0000000000
     24411      8110  TIP3      H2             20.9276324351       -4.6540580713       32.4869778721  SOLV      8099            0.0000000000
     24412      8111  TIP3      OH2            20.6408194495       -2.6280950045       30.2037914897  SOLV      8100            0.0000000000
     24413      8111  TIP3      H1             20.0532731384       -2.0664406248       29.6443766971  SOLV      8100            0.0000000000
     24414      8111  TIP3      H2             21.5160292575       -2.3875996349       29.8245798498  SOLV      8100            0.0000000000
     24415      8112  TIP3      OH2            12.9965651181       -6.9320218124       34.5684650251  SOLV      8101            0.0000000000
     24416      8112  TIP3      H1             12.1886047956       -7.4503969066       34.7422462131  SOLV      8101            0.0000000000
     24417      8112  TIP3      H2             13.2741713813       -7.2822444988       33.7004132392  SOLV      8101            0.0000000000
     24418      8113  TIP3      OH2            15.4477578781      -12.5823751848       30.9997329043  SOLV      8102            0.0000000000
     24419      8113  TIP3      H1             14.9512869023      -11.7626619860       30.7903829076  SOLV      8102            0.0000000000
     24420      8113  TIP3      H2             14.7501947091      -13.2648046647       30.9285306717  SOLV      8102            0.0000000000
     24421      8114  TIP3      OH2            16.7417427665       -7.5127270580       33.1687242396  SOLV      8103            0.0000000000
     24422      8114  TIP3      H1             16.5638212128       -7.6485436935       34.1209021672  SOLV      8103            0.0000000000
     24423      8114  TIP3      H2             15.8508790972       -7.7391321211       32.8236086389  SOLV      8103            0.0000000000
     24424      8115  TIP3      OH2            19.0876151865       -8.0824011847       31.7469598140  SOLV      8104            0.0000000000
     24425      8115  TIP3      H1             18.3651712265       -8.0067927964       32.4030477567  SOLV      8104            0.0000000000
     24426      8115  TIP3      H2             19.8493358396       -8.3338609923       32.3085549790  SOLV      8104            0.0000000000
     24427      8116  TIP3      OH2            21.4530257254       -8.6930455939       33.1643074031  SOLV      8105            0.0000000000
     24428      8116  TIP3      H1             21.5483683502       -9.6017921585       33.5046102736  SOLV      8105            0.0000000000
     24429      8116  TIP3      H2             21.3614155586       -8.1618487345       33.9874593391  SOLV      8105            0.0000000000
     24430      8117  TIP3      OH2            11.2202070103       -9.1187876952       34.8065122657  SOLV      8106            0.0000000000
     24431      8117  TIP3      H1             11.3073581136      -10.0693427440       34.6164580868  SOLV      8106            0.0000000000
     24432      8117  TIP3      H2             11.7513607291       -9.0826474020       35.6378605091  SOLV      8106            0.0000000000
     24433      8118  TIP3      OH2            16.4450732404      -12.3660564177       33.5288704530  SOLV      8107            0.0000000000
     24434      8118  TIP3      H1             16.9776865112      -13.1814476985       33.5251348030  SOLV      8107            0.0000000000
     24435      8118  TIP3      H2             15.9778911746      -12.4522069788       32.6748026561  SOLV      8107            0.0000000000
     24436      8119  TIP3      OH2            17.1648421029      -10.1914171557       34.9872999542  SOLV      8108            0.0000000000
     24437      8119  TIP3      H1             16.9087728353      -10.9000472126       34.3540140721  SOLV      8108            0.0000000000
     24438      8119  TIP3      H2             16.3749009633       -9.6088085367       34.9655980732  SOLV      8108            0.0000000000
     24439      8120  TIP3      OH2             9.3267000752        1.9807048940       16.2194426512  SOLV      8109            0.0000000000
     24440      8120  TIP3      H1             10.2756765832        1.8854319595       16.0141872084  SOLV      8109            0.0000000000
     24441      8120  TIP3      H2              9.0440387326        2.5029320058       15.4444634835  SOLV      8109            0.0000000000
     24442      8121  TIP3      OH2             4.0914041242       -4.1859977707       18.3368422249  SOLV      8110            0.0000000000
     24443      8121  TIP3      H1              5.0417770642       -3.9830726873       18.1901104179  SOLV      8110            0.0000000000
     24444      8121  TIP3      H2              4.0178810914       -5.0694084017       17.9175566945  SOLV      8110            0.0000000000
     24445      8122  TIP3      OH2             3.2764968615        1.9309033301       22.5294422816  SOLV      8111            0.0000000000
     24446      8122  TIP3      H1              2.6250756218        1.3223557735       22.1168293375  SOLV      8111            0.0000000000
     24447      8122  TIP3      H2              3.7163145225        1.3213155196       23.1596460058  SOLV      8111            0.0000000000
     24448      8123  TIP3      OH2             4.6108045542        0.3634850805       24.3854772778  SOLV      8112            0.0000000000
     24449      8123  TIP3      H1              4.4817555783       -0.3242819217       25.0616218986  SOLV      8112            0.0000000000
     24450      8123  TIP3      H2              5.1357025108        1.0052200435       24.8962087283  SOLV      8112            0.0000000000
     24451      8124  TIP3      OH2            21.9036656040        4.4033456958       22.3917895129  SOLV      8113            0.0000000000
     24452      8124  TIP3      H1             22.1420241428        4.7116011615       23.2857543735  SOLV      8113            0.0000000000
     24453      8124  TIP3      H2             22.5418208480        4.8748859201       21.8349443310  SOLV      8113            0.0000000000
     24454      8125  TIP3      OH2            22.1459121201        4.5950532020       25.1913416134  SOLV      8114            0.0000000000
     24455      8125  TIP3      H1             21.6779464061        3.7339664238       25.1480940417  SOLV      8114            0.0000000000
     24456      8125  TIP3      H2             22.8775127510        4.3481863122       25.7770166016  SOLV      8114            0.0000000000
     24457      8126  TIP3      OH2            22.5853164081        1.3830040406       30.9294075211  SOLV      8115            0.0000000000
     24458      8126  TIP3      H1             21.8354547249        1.4534115431       31.5585621643  SOLV      8115            0.0000000000
     24459      8126  TIP3      H2             22.9621074319        2.2843776916       30.9813835814  SOLV      8115            0.0000000000
     24460      8127  TIP3      OH2            20.8027860458       -3.4809902693       17.1023553012  SOLV      8116            0.0000000000
     24461      8127  TIP3      H1             21.4547715045       -2.8228972779       16.7861224145  SOLV      8116            0.0000000000
     24462      8127  TIP3      H2             21.2592959626       -3.8291337506       17.9019786081  SOLV      8116            0.0000000000
     24463      8128  TIP3      OH2            22.0657873535       -4.7631883919       19.1757457834  SOLV      8117            0.0000000000
     24464      8128  TIP3      H1             21.4089900197       -5.1726573665       19.7785307425  SOLV      8117            0.0000000000
     24465      8128  TIP3      H2             22.7543164053       -4.4437660571       19.7965020291  SOLV      8117            0.0000000000
     24466      8129  TIP3      OH2            22.6526542455       -0.8533167377       23.4627397578  SOLV      8118            0.0000000000
     24467      8129  TIP3      H1             23.1717346978       -1.5538737107       23.0177212271  SOLV      8118            0.0000000000
     24468      8129  TIP3      H2             22.6249198737       -0.1509623476       22.7839571672  SOLV      8118            0.0000000000
     24469      8130  TIP3      OH2            20.8951317684        2.1237654679       25.4062134072  SOLV      8119            0.0000000000
     24470      8130  TIP3      H1             20.1778770204        2.5462527636       25.9195565629  SOLV      8119            0.0000000000
     24471      8130  TIP3      H2             20.3987961716        1.6772305396       24.6866476534  SOLV      8119            0.0000000000
     24472      8131  TIP3      OH2            21.4288581587       -5.7245310932       15.6124873770  SOLV      8120            0.0000000000
     24473      8131  TIP3      H1             20.7141078626       -5.6964897970       14.9378740725  SOLV      8120            0.0000000000
     24474      8131  TIP3      H2             21.1594998603       -4.9613380306       16.1658722914  SOLV      8120            0.0000000000
     24475      8132  TIP3      OH2            20.1174810909       -8.9849435037       15.1339793038  SOLV      8121            0.0000000000
     24476      8132  TIP3      H1             19.6913551992       -8.6167019683       14.3529496926  SOLV      8121            0.0000000000
     24477      8132  TIP3      H2             19.9110991405       -9.9386107113       15.0300273893  SOLV      8121            0.0000000000
     24478      8133  TIP3      OH2            20.1816158932       -6.1846838807       20.6146127517  SOLV      8122            0.0000000000
     24479      8133  TIP3      H1             20.2973431005       -7.1443403089       20.5325513993  SOLV      8122            0.0000000000
     24480      8133  TIP3      H2             20.0348440403       -6.0718117132       21.5813823894  SOLV      8122            0.0000000000
     24481      8134  TIP3      OH2             6.4459192356       -5.4847386807       28.0998601680  SOLV      8123            0.0000000000
     24482      8134  TIP3      H1              6.4140132747       -5.8372678615       27.1861288655  SOLV      8123            0.0000000000
     24483      8134  TIP3      H2              7.4195281095       -5.4895605631       28.2594334355  SOLV      8123            0.0000000000
     24484      8135  TIP3      OH2            23.1108528211       -1.9613541859       29.1751746404  SOLV      8124            0.0000000000
     24485      8135  TIP3      H1             23.8216125259       -2.6336989421       29.0739803125  SOLV      8124            0.0000000000
     24486      8135  TIP3      H2             23.3419741704       -1.3111665836       28.4938306318  SOLV      8124            0.0000000000
     24487      8136  TIP3      OH2            24.9523947330       -3.9525794972       29.2616528356  SOLV      8125            0.0000000000
     24488      8136  TIP3      H1             24.2230887071       -4.4811310266       29.6499121379  SOLV      8125            0.0000000000
     24489      8136  TIP3      H2             25.7112855307       -4.5452242489       29.4457141139  SOLV      8125            0.0000000000
     24490      8137  TIP3      OH2            19.6248675429      -11.6618053399       14.9338439617  SOLV      8126            0.0000000000
     24491      8137  TIP3      H1             20.4142491558      -11.9175716433       15.4592726113  SOLV      8126            0.0000000000
     24492      8137  TIP3      H2             18.9444936031      -12.2716067957       15.2435068398  SOLV      8126            0.0000000000
     24493      8138  TIP3      OH2            20.1673967322       -9.0462445140       19.5045493477  SOLV      8127            0.0000000000
     24494      8138  TIP3      H1             20.5792260317       -9.9329631269       19.6443695081  SOLV      8127            0.0000000000
     24495      8138  TIP3      H2             20.7491632834       -8.7038791994       18.7991273221  SOLV      8127            0.0000000000
     24496      8139  TIP3      OH2            21.7531962075       -7.3821943867       24.5055205912  SOLV      8128            0.0000000000
     24497      8139  TIP3      H1             22.6092884767       -7.1387380025       24.0813310421  SOLV      8128            0.0000000000
     24498      8139  TIP3      H2             21.9092081302       -6.9901370599       25.3873644517  SOLV      8128            0.0000000000
     24499      8140  TIP3      OH2            22.4936715647       -5.8968404640       26.7894291164  SOLV      8129            0.0000000000
     24500      8140  TIP3      H1             21.7337571871       -5.5485079442       27.2928245205  SOLV      8129            0.0000000000
     24501      8140  TIP3      H2             22.8255667527       -5.0847160752       26.3462609459  SOLV      8129            0.0000000000
     24502      8141  TIP3      OH2             8.5760682806       -8.6103870621       34.5654337602  SOLV      8130            0.0000000000
     24503      8141  TIP3      H1              9.5514412972       -8.5869871850       34.7031400473  SOLV      8130            0.0000000000
     24504      8141  TIP3      H2              8.3554425645       -9.4396836890       35.0332378024  SOLV      8130            0.0000000000
     24505      8142  TIP3      OH2            21.2105151489      -11.5423851185       19.9359320803  SOLV      8131            0.0000000000
     24506      8142  TIP3      H1             21.7442003374      -11.6965014162       20.7453028042  SOLV      8131            0.0000000000
     24507      8142  TIP3      H2             20.6371203031      -12.3320269009       19.9369460513  SOLV      8131            0.0000000000
     24508      8143  TIP3      OH2             8.2565666006      -11.7032375876       28.0938122978  SOLV      8132            0.0000000000
     24509      8143  TIP3      H1              8.8731754432      -12.4535135525       28.2036164620  SOLV      8132            0.0000000000
     24510      8143  TIP3      H2              8.8816222232      -10.9593827542       28.0298911152  SOLV      8132            0.0000000000
     24511      8144  TIP3      OH2             6.2406171556       -9.0099470754       28.8295410974  SOLV      8133            0.0000000000
     24512      8144  TIP3      H1              6.7605769689       -8.9686865837       28.0023680943  SOLV      8133            0.0000000000
     24513      8144  TIP3      H2              6.4982681321       -8.1899879892       29.2683094741  SOLV      8133            0.0000000000
     24514      8145  TIP3      OH2            25.4736062770       -8.5392359832       30.4704826005  SOLV      8134            0.0000000000
     24515      8145  TIP3      H1             24.5730116224       -8.1873135684       30.3016121248  SOLV      8134            0.0000000000
     24516      8145  TIP3      H2             25.4034893715       -9.3850770553       29.9928480922  SOLV      8134            0.0000000000
     24517      8146  TIP3      OH2            21.9996421769      -12.2406233011       16.2500131516  SOLV      8135            0.0000000000
     24518      8146  TIP3      H1             22.4888103079      -12.9144492080       15.7406492661  SOLV      8135            0.0000000000
     24519      8146  TIP3      H2             22.6621593407      -11.5201421874       16.3254390614  SOLV      8135            0.0000000000
     24520      8147  TIP3      OH2             6.1217702121      -14.0141418329       23.8039743895  SOLV      8136            0.0000000000
     24521      8147  TIP3      H1              5.2175352231      -14.0294636183       24.1620982141  SOLV      8136            0.0000000000
     24522      8147  TIP3      H2              6.0370045258      -13.3735479072       23.0668269736  SOLV      8136            0.0000000000
     24523      8148  TIP3      OH2            17.7030475928        3.1213662065       18.9226964449  SOLV      8137            0.0000000000
     24524      8148  TIP3      H1             18.2327868858        3.0384985156       18.1022217559  SOLV      8137            0.0000000000
     24525      8148  TIP3      H2             18.2230818417        3.7655121011       19.4310510600  SOLV      8137            0.0000000000
     24526      8149  TIP3      OH2             8.3449685591      -13.2027494350       31.8918731276  SOLV      8138            0.0000000000
     24527      8149  TIP3      H1              7.8259125552      -13.2290389011       32.7144469930  SOLV      8138            0.0000000000
     24528      8149  TIP3      H2              7.7029013256      -12.7717070392       31.2949738100  SOLV      8138            0.0000000000
     24529      8150  TIP3      OH2             8.7067915778        1.1811137100       32.7475696068  SOLV      8139            0.0000000000
     24530      8150  TIP3      H1              7.7753512884        0.9224800163       32.6163078405  SOLV      8139            0.0000000000
     24531      8150  TIP3      H2              8.8479146323        0.9537862638       33.6751631507  SOLV      8139            0.0000000000
     24532      8151  TIP3      OH2            10.5288198795        1.5013383859       28.2424729273  SOLV      8140            0.0000000000
     24533      8151  TIP3      H1             10.0618337172        2.2726348967       27.8590468898  SOLV      8140            0.0000000000
     24534      8151  TIP3      H2             11.3925018129        1.6295684746       27.7994200476  SOLV      8140            0.0000000000
     24535      8152  TIP3      OH2            14.9066648914        3.9157816264       29.6113390145  SOLV      8141            0.0000000000
     24536      8152  TIP3      H1             15.3221410638        3.8918646973       30.5019485153  SOLV      8141            0.0000000000
     24537      8152  TIP3      H2             15.5698535356        4.4446465731       29.1187500318  SOLV      8141            0.0000000000
     24538      8153  TIP3      OH2            16.7158763818        5.4778217508       28.2481678113  SOLV      8142            0.0000000000
     24539      8153  TIP3      H1             17.4291284925        4.9548676933       27.8559808795  SOLV      8142            0.0000000000
     24540      8153  TIP3      H2             17.2297019156        6.0416227424       28.8693509622  SOLV      8142            0.0000000000
     24541      8154  TIP3      OH2            24.6619906406      -10.9351117759       29.1991927745  SOLV      8143            0.0000000000
     24542      8154  TIP3      H1             23.7455399276      -11.0255423193       28.8862620798  SOLV      8143            0.0000000000
     24543      8154  TIP3      H2             24.9928623079      -11.8548202068       29.0607789306  SOLV      8143            0.0000000000
     24544      8155  TIP3      OH2             7.2533562859        4.0990466239       28.4712006521  SOLV      8144            0.0000000000
     24545      8155  TIP3      H1              6.3263518965        4.3870372703       28.3141447128  SOLV      8144            0.0000000000
     24546      8155  TIP3      H2              7.4324973312        4.5344335125       29.3168086199  SOLV      8144            0.0000000000
     24547      8156  TIP3      OH2             9.6307117484        3.8367451676       27.1077995391  SOLV      8145            0.0000000000
     24548      8156  TIP3      H1              8.7464301418        3.9520151448       27.5233796932  SOLV      8145            0.0000000000
     24549      8156  TIP3      H2              9.4553206892        4.1178763509       26.1887895611  SOLV      8145            0.0000000000
     24550      8157  TIP3      OH2            13.8822724885        4.0880260983       25.0707623982  SOLV      8146            0.0000000000
     24551      8157  TIP3      H1             13.1790104995        4.2655733323       24.4212537670  SOLV      8146            0.0000000000
     24552      8157  TIP3      H2             13.9901688715        4.9650836331       25.4949777859  SOLV      8146            0.0000000000
     24553      8158  TIP3      OH2            16.5757344754        3.4605646758       25.5886358074  SOLV      8147            0.0000000000
     24554      8158  TIP3      H1             15.6412965625        3.6619895657       25.3860937648  SOLV      8147            0.0000000000
     24555      8158  TIP3      H2             17.0361257935        4.1987479931       25.1545861786  SOLV      8147            0.0000000000
     24556      8159  TIP3      OH2            18.5923445758        5.3702096898       24.6957001734  SOLV      8148            0.0000000000
     24557      8159  TIP3      H1             18.4777281663        6.2191523763       24.2156689844  SOLV      8148            0.0000000000
     24558      8159  TIP3      H2             18.8836668028        4.7724820137       23.9718450993  SOLV      8148            0.0000000000
     24559      8160  TIP3      OH2             6.3841259166        1.9753699284       25.9425719080  SOLV      8149            0.0000000000
     24560      8160  TIP3      H1              6.6550564365        1.6815606265       26.8391673150  SOLV      8149            0.0000000000
     24561      8160  TIP3      H2              7.0938820002        1.5361543638       25.4204346993  SOLV      8149            0.0000000000
     24562      8161  TIP3      OH2             8.3355328167        0.7029581081       24.5443813791  SOLV      8150            0.0000000000
     24563      8161  TIP3      H1              8.4738556209       -0.1404268544       25.0391134455  SOLV      8150            0.0000000000
     24564      8161  TIP3      H2              9.2533864207        1.0451900164       24.5057562535  SOLV      8150            0.0000000000
     24565      8162  TIP3      OH2            11.0233901938        1.6069951203       24.6049328515  SOLV      8151            0.0000000000
     24566      8162  TIP3      H1             11.3057569705        0.6766860779       24.5064129038  SOLV      8151            0.0000000000
     24567      8162  TIP3      H2             11.5236840216        1.8366664763       25.4127596124  SOLV      8151            0.0000000000
     24568      8163  TIP3      OH2            16.6780231156      -11.8594531569       25.3406049478  SOLV      8152            0.0000000000
     24569      8163  TIP3      H1             16.2988940758      -12.5551147451       25.9061041251  SOLV      8152            0.0000000000
     24570      8163  TIP3      H2             17.4920628163      -12.2811314866       24.9977143717  SOLV      8152            0.0000000000
     24571      8164  TIP3      OH2            21.9253927175      -13.0317046256       24.3736226405  SOLV      8153            0.0000000000
     24572      8164  TIP3      H1             22.2764176747      -12.4914749773       23.6296053831  SOLV      8153            0.0000000000
     24573      8164  TIP3      H2             20.9928482488      -12.7529357031       24.3988119466  SOLV      8153            0.0000000000
     24574      8165  TIP3      OH2            22.9090314435      -12.0207968102       22.0358661794  SOLV      8154            0.0000000000
     24575      8165  TIP3      H1             23.6371960890      -12.5712919886       21.6733292292  SOLV      8154            0.0000000000
     24576      8165  TIP3      H2             23.3044624371      -11.1277956956       21.8923498700  SOLV      8154            0.0000000000
     24577      8166  TIP3      OH2             9.2119093027      -14.7487395634       25.5298742119  SOLV      8155            0.0000000000
     24578      8166  TIP3      H1              8.2863199572      -15.0709721598       25.6023536289  SOLV      8155            0.0000000000
     24579      8166  TIP3      H2              9.6884929162      -15.6056699896       25.5044232081  SOLV      8155            0.0000000000
     24580      8167  TIP3      OH2             7.1216184011      -16.0001622477       22.0700562837  SOLV      8156            0.0000000000
     24581      8167  TIP3      H1              7.3671012023      -15.4050581038       21.3422206364  SOLV      8156            0.0000000000
     24582      8167  TIP3      H2              6.8237365489      -15.3607788142       22.7530293537  SOLV      8156            0.0000000000
     24583      8168  TIP3      OH2            13.6853887591      -14.4210857752       24.3862963201  SOLV      8157            0.0000000000
     24584      8168  TIP3      H1             14.2456092208      -13.8938327947       23.7963748669  SOLV      8157            0.0000000000
     24585      8168  TIP3      H2             13.9095414379      -14.0461259822       25.2528260155  SOLV      8157            0.0000000000
     24586      8169  TIP3      OH2            19.0438259142      -12.9440547145       24.2343026494  SOLV      8158            0.0000000000
     24587      8169  TIP3      H1             19.1767453152      -13.3737779689       23.3797287377  SOLV      8158            0.0000000000
     24588      8169  TIP3      H2             18.9465374123      -13.7271676141       24.8274900921  SOLV      8158            0.0000000000
     24589      8170  TIP3      OH2            19.3698793710      -13.6994448770       19.7815952846  SOLV      8159            0.0000000000
     24590      8170  TIP3      H1             18.5879818766      -13.2086149079       20.1009509190  SOLV      8159            0.0000000000
     24591      8170  TIP3      H2             19.2196424885      -14.5752093157       20.2080850258  SOLV      8159            0.0000000000
     24592      8171  TIP3      OH2             4.2409754943       -0.2417181199       19.8003585282  SOLV      8160            0.0000000000
     24593      8171  TIP3      H1              3.3753699027       -0.5712379616       19.4934717791  SOLV      8160            0.0000000000
     24594      8171  TIP3      H2              4.1754700321        0.6809828709       19.4878585042  SOLV      8160            0.0000000000
     24595      8172  TIP3      OH2             8.2951800735      -14.4279388090       19.6526539349  SOLV      8161            0.0000000000
     24596      8172  TIP3      H1              8.7919511888      -15.0487782624       19.0877722087  SOLV      8161            0.0000000000
     24597      8172  TIP3      H2              9.0140947160      -13.8865149889       20.0330200759  SOLV      8161            0.0000000000
     24598      8173  TIP3      OH2            13.4405563637      -12.7070291249       20.6910917535  SOLV      8162            0.0000000000
     24599      8173  TIP3      H1             14.0523486952      -13.0252211362       21.3827654834  SOLV      8162            0.0000000000
     24600      8173  TIP3      H2             13.5408431205      -11.7418913365       20.8643225495  SOLV      8162            0.0000000000
     24601      8174  TIP3      OH2            11.9915525968        1.5240627368       15.6821040322  SOLV      8163            0.0000000000
     24602      8174  TIP3      H1             12.8668942616        1.7637723820       15.3114272261  SOLV      8163            0.0000000000
     24603      8174  TIP3      H2             11.7637843997        0.7899248945       15.0667726056  SOLV      8163            0.0000000000
     24604      8175  TIP3      OH2            19.1963784302        2.7910449053       16.6186817320  SOLV      8164            0.0000000000
     24605      8175  TIP3      H1             19.1160198008        1.8117155780       16.5239697222  SOLV      8164            0.0000000000
     24606      8175  TIP3      H2             18.7171595878        3.0864116618       15.8178518043  SOLV      8164            0.0000000000
     24607      8176  TIP3      OH2            11.3494111422      -11.9458008355       34.3660231936  SOLV      8165            0.0000000000
     24608      8176  TIP3      H1             11.0211158313      -12.7048387858       34.8833341954  SOLV      8165            0.0000000000
     24609      8176  TIP3      H2             12.2790195339      -11.9096911618       34.6898638777  SOLV      8165            0.0000000000
     24610      8177  TIP3      OH2            13.8799873415      -12.0446402060       35.5232316042  SOLV      8166            0.0000000000
     24611      8177  TIP3      H1             14.7894404873      -12.2823459586       35.2700724018  SOLV      8166            0.0000000000
     24612      8177  TIP3      H2             13.6817031016      -12.7957692846       36.1199419363  SOLV      8166            0.0000000000
     24613      8178  TIP3      OH2             5.0057729414       -0.1007768811       16.1932627013  SOLV      8167            0.0000000000
     24614      8178  TIP3      H1              5.0385256033        0.1266102742       17.1323775755  SOLV      8167            0.0000000000
     24615      8178  TIP3      H2              5.8844596708       -0.5251530680       16.0489757405  SOLV      8167            0.0000000000
     24616      8179  TIP3      OH2            22.1762246368      -11.4239801067       33.7319246973  SOLV      8168            0.0000000000
     24617      8179  TIP3      H1             22.7444641338      -11.4688849782       34.5123022778  SOLV      8168            0.0000000000
     24618      8179  TIP3      H2             22.8592067975      -11.4116164596       33.0221195568  SOLV      8168            0.0000000000
     24619      8180  TIP3      OH2            21.4345936981        4.2049640754       28.3968862929  SOLV      8169            0.0000000000
     24620      8180  TIP3      H1             20.6263665689        3.9004449156       27.9357798482  SOLV      8169            0.0000000000
     24621      8180  TIP3      H2             21.2129059100        5.1503949127       28.5270381467  SOLV      8169            0.0000000000
     24622      8181  TIP3      OH2            34.1089706354       -2.0137847487       16.0690135352  SOLV      8170            0.0000000000
     24623      8181  TIP3      H1             33.7528437833       -1.1310995705       15.8410640841  SOLV      8170            0.0000000000
     24624      8181  TIP3      H2             33.3611890501       -2.5794689920       15.8077037800  SOLV      8170            0.0000000000
     24625      8182  TIP3      OH2            33.9866812517       -1.9722652907       20.0088338760  SOLV      8171            0.0000000000
     24626      8182  TIP3      H1             34.3854396315       -2.2265005094       20.8671400579  SOLV      8171            0.0000000000
     24627      8182  TIP3      H2             33.7358792878       -2.8569470084       19.6857095470  SOLV      8171            0.0000000000
     24628      8183  TIP3      OH2            27.0399322318       -3.1608902987       23.6082512479  SOLV      8172            0.0000000000
     24629      8183  TIP3      H1             27.3062963559       -3.8317492716       24.2660906352  SOLV      8172            0.0000000000
     24630      8183  TIP3      H2             27.8757674601       -2.6873674766       23.4934098065  SOLV      8172            0.0000000000
     24631      8184  TIP3      OH2            36.5558831050        0.8583341256       16.6848551476  SOLV      8173            0.0000000000
     24632      8184  TIP3      H1             36.3923970578        0.1722603705       17.3474450255  SOLV      8173            0.0000000000
     24633      8184  TIP3      H2             36.8247697604        1.6174420884       17.2361279045  SOLV      8173            0.0000000000
     24634      8185  TIP3      OH2            26.8211849851        0.9695934505       20.7933288325  SOLV      8174            0.0000000000
     24635      8185  TIP3      H1             26.7332286729       -0.0079536250       20.7747264127  SOLV      8174            0.0000000000
     24636      8185  TIP3      H2             27.7886619896        1.0556741480       20.7555109196  SOLV      8174            0.0000000000
     24637      8186  TIP3      OH2            23.8403680320       -6.9712955275       18.5216683217  SOLV      8175            0.0000000000
     24638      8186  TIP3      H1             23.3760265685       -6.1515382273       18.7593436704  SOLV      8175            0.0000000000
     24639      8186  TIP3      H2             23.1125679977       -7.4825429829       18.1267810930  SOLV      8175            0.0000000000
     24640      8187  TIP3      OH2            24.4368884481       -4.1687058884       20.4559007030  SOLV      8176            0.0000000000
     24641      8187  TIP3      H1             24.9326614314       -4.9461833771       20.8019924013  SOLV      8176            0.0000000000
     24642      8187  TIP3      H2             25.0561407300       -3.8294990069       19.7959595811  SOLV      8176            0.0000000000
     24643      8188  TIP3      OH2            33.0632567889        5.6513171908       16.9510754864  SOLV      8177            0.0000000000
     24644      8188  TIP3      H1             33.4493854259        4.8749058396       16.4962114758  SOLV      8177            0.0000000000
     24645      8188  TIP3      H2             32.7772439226        5.2739448035       17.7974921764  SOLV      8177            0.0000000000
     24646      8189  TIP3      OH2            32.0782152556        0.1950254325       20.4368620868  SOLV      8178            0.0000000000
     24647      8189  TIP3      H1             32.4834508687       -0.6188991410       20.0764916780  SOLV      8178            0.0000000000
     24648      8189  TIP3      H2             32.9087505698        0.6608699423       20.6728769597  SOLV      8178            0.0000000000
     24649      8190  TIP3      OH2            36.3889652505       -4.7018059401       20.7345892461  SOLV      8179            0.0000000000
     24650      8190  TIP3      H1             36.7617055382       -5.6014304112       20.7889989679  SOLV      8179            0.0000000000
     24651      8190  TIP3      H2             35.6821939066       -4.8553062737       20.0793794844  SOLV      8179            0.0000000000
     24652      8191  TIP3      OH2            36.4335235398       -7.4802068492       16.6306032999  SOLV      8180            0.0000000000
     24653      8191  TIP3      H1             37.1520626066       -7.6027411361       17.2939175686  SOLV      8180            0.0000000000
     24654      8191  TIP3      H2             36.9189427090       -6.9858312148       15.9430001193  SOLV      8180            0.0000000000
     24655      8192  TIP3      OH2            25.9268557517       -6.1668039373       21.5508560662  SOLV      8181            0.0000000000
     24656      8192  TIP3      H1             26.8260200720       -6.2520604645       21.9148158316  SOLV      8181            0.0000000000
     24657      8192  TIP3      H2             25.9927428467       -6.8376347895       20.8263820769  SOLV      8181            0.0000000000
     24658      8193  TIP3      OH2            29.5123612181       -8.3054142043       24.6939202883  SOLV      8182            0.0000000000
     24659      8193  TIP3      H1             28.9899370481       -7.9811887318       23.9364401371  SOLV      8182            0.0000000000
     24660      8193  TIP3      H2             28.9053989832       -8.1043893287       25.4352935244  SOLV      8182            0.0000000000
     24661      8194  TIP3      OH2            32.9414598903        0.1556784583       14.7982823755  SOLV      8183            0.0000000000
     24662      8194  TIP3      H1             32.5571055300       -0.0219994603       13.9285598212  SOLV      8183            0.0000000000
     24663      8194  TIP3      H2             32.4635750832        0.9686898529       15.0628132182  SOLV      8183            0.0000000000
     24664      8195  TIP3      OH2            30.6307400949       -0.6019632054       22.6224977678  SOLV      8184            0.0000000000
     24665      8195  TIP3      H1             30.0077974476        0.0774581379       22.9611846941  SOLV      8184            0.0000000000
     24666      8195  TIP3      H2             31.0278698393       -0.1532433186       21.8458527701  SOLV      8184            0.0000000000
     24667      8196  TIP3      OH2            38.4464410536       -7.5415728956       18.4017496124  SOLV      8185            0.0000000000
     24668      8196  TIP3      H1             38.0741313785       -7.2608346771       19.2665174501  SOLV      8185            0.0000000000
     24669      8196  TIP3      H2             39.3026192945       -7.0599995972       18.3665069261  SOLV      8185            0.0000000000
     24670      8197  TIP3      OH2            28.4208847287       -7.2504585588       22.2987069364  SOLV      8186            0.0000000000
     24671      8197  TIP3      H1             29.0536029664       -6.5659699006       22.6165854820  SOLV      8186            0.0000000000
     24672      8197  TIP3      H2             28.7185778813       -7.3324299586       21.3738650018  SOLV      8186            0.0000000000
     24673      8198  TIP3      OH2            28.9091587494        1.3504466529       23.6034414687  SOLV      8187            0.0000000000
     24674      8198  TIP3      H1             28.6343915029        2.2175915058       23.2393191263  SOLV      8187            0.0000000000
     24675      8198  TIP3      H2             28.1244510304        1.1594619242       24.1609755148  SOLV      8187            0.0000000000
     24676      8199  TIP3      OH2            22.7768142346       -1.7437364271       16.0028927571  SOLV      8188            0.0000000000
     24677      8199  TIP3      H1             22.4006204834       -1.4506331949       15.1533393943  SOLV      8188            0.0000000000
     24678      8199  TIP3      H2             23.1274803711       -0.9027228294       16.3631008439  SOLV      8188            0.0000000000
     24679      8200  TIP3      OH2            36.9189959196        3.2713631256       18.0710508937  SOLV      8189            0.0000000000
     24680      8200  TIP3      H1             36.0956612692        3.1409184279       18.5973902798  SOLV      8189            0.0000000000
     24681      8200  TIP3      H2             36.7897130542        4.1872300502       17.7817494275  SOLV      8189            0.0000000000
     24682      8201  TIP3      OH2            32.9153510697      -11.1061881919       21.6141782004  SOLV      8190            0.0000000000
     24683      8201  TIP3      H1             33.4549683940      -11.4515402505       22.3377186623  SOLV      8190            0.0000000000
     24684      8201  TIP3      H2             32.2243674051      -10.6196903984       22.1091130735  SOLV      8190            0.0000000000
     24685      8202  TIP3      OH2            34.2160419114        3.8771527270       15.1385706558  SOLV      8191            0.0000000000
     24686      8202  TIP3      H1             34.6831020642        3.0204562964       14.9818006111  SOLV      8191            0.0000000000
     24687      8202  TIP3      H2             34.8845232944        4.4941521573       14.7744423372  SOLV      8191            0.0000000000
     24688      8203  TIP3      OH2            35.6427858856        1.7241375753       14.2666893103  SOLV      8192            0.0000000000
     24689      8203  TIP3      H1             35.3370382167        0.9196929741       13.8218144604  SOLV      8192            0.0000000000
     24690      8203  TIP3      H2             36.0178126032        1.3434318240       15.0949266013  SOLV      8192            0.0000000000
     24691      8204  TIP3      OH2            39.3957674284        2.4868337239       21.9879412610  SOLV      8193            0.0000000000
     24692      8204  TIP3      H1             39.5823243712        1.6361139289       21.5383157206  SOLV      8193            0.0000000000
     24693      8204  TIP3      H2             39.5150350653        3.0919744136       21.2383643948  SOLV      8193            0.0000000000
     24694      8205  TIP3      OH2            32.3917928200       -3.5264802960       14.4623478973  SOLV      8194            0.0000000000
     24695      8205  TIP3      H1             31.6031055399       -3.0021009268       14.2246663304  SOLV      8194            0.0000000000
     24696      8205  TIP3      H2             32.8692446449       -3.5855120091       13.6144621178  SOLV      8194            0.0000000000
     24697      8206  TIP3      OH2            31.9821851419       -5.6630577404       11.5013423060  SOLV      8195            0.0000000000
     24698      8206  TIP3      H1             32.6170159169       -5.1472763194       12.0311387603  SOLV      8195            0.0000000000
     24699      8206  TIP3      H2             32.5982866742       -6.2744039464       11.0455520973  SOLV      8195            0.0000000000
     24700      8207  TIP3      OH2            41.4948607503       -1.1748164955       20.2476628104  SOLV      8196            0.0000000000
     24701      8207  TIP3      H1             40.8412009047       -0.4499661238       20.2264092231  SOLV      8196            0.0000000000
     24702      8207  TIP3      H2             41.7727750241       -1.2449631474       19.3263701445  SOLV      8196            0.0000000000
     24703      8208  TIP3      OH2            35.8721845501       -2.6884389921       14.1126516729  SOLV      8197            0.0000000000
     24704      8208  TIP3      H1             35.3215405573       -2.4686781538       14.9027174112  SOLV      8197            0.0000000000
     24705      8208  TIP3      H2             36.6757879020       -3.0299396001       14.5576338884  SOLV      8197            0.0000000000
     24706      8209  TIP3      OH2            37.9029474854       -2.2765839716       23.0562557199  SOLV      8198            0.0000000000
     24707      8209  TIP3      H1             37.9300086876       -1.5913073838       23.7467512486  SOLV      8198            0.0000000000
     24708      8209  TIP3      H2             37.0250158942       -2.1269422604       22.6553700384  SOLV      8198            0.0000000000
     24709      8210  TIP3      OH2            28.3728970830       -3.0408801692       18.3794249122  SOLV      8199            0.0000000000
     24710      8210  TIP3      H1             27.8178299287       -3.3925921765       17.6496001792  SOLV      8199            0.0000000000
     24711      8210  TIP3      H2             28.9610362322       -3.8087471366       18.5331610379  SOLV      8199            0.0000000000
     24712      8211  TIP3      OH2            29.5421307988        1.4102384606       19.7780375760  SOLV      8200            0.0000000000
     24713      8211  TIP3      H1             29.2953348991        1.0611684328       18.9063664459  SOLV      8200            0.0000000000
     24714      8211  TIP3      H2             30.4132664254        0.9867263441       19.9288928961  SOLV      8200            0.0000000000
     24715      8212  TIP3      OH2            29.5472517374       -3.0454892560       21.8885303064  SOLV      8201            0.0000000000
     24716      8212  TIP3      H1             29.9936632640       -3.3642086716       21.0865002484  SOLV      8201            0.0000000000
     24717      8212  TIP3      H2             30.0025639236       -2.1963924842       22.0683355434  SOLV      8201            0.0000000000
     24718      8213  TIP3      OH2            34.7952742148        3.4098876649       19.7206158227  SOLV      8202            0.0000000000
     24719      8213  TIP3      H1             34.7078650637        4.1585057033       20.3340032666  SOLV      8202            0.0000000000
     24720      8213  TIP3      H2             34.6355023773        2.6315681005       20.2954129251  SOLV      8202            0.0000000000
     24721      8214  TIP3      OH2            30.9439294601        2.4743496827       25.0185457801  SOLV      8203            0.0000000000
     24722      8214  TIP3      H1             30.2586005261        3.0228957696       25.4614416025  SOLV      8203            0.0000000000
     24723      8214  TIP3      H2             30.3552353261        1.8995596038       24.4829888712  SOLV      8203            0.0000000000
     24724      8215  TIP3      OH2            34.1986591403       -4.0994711670       12.4295027174  SOLV      8204            0.0000000000
     24725      8215  TIP3      H1             34.8309832570       -3.5174366956       12.9068471957  SOLV      8204            0.0000000000
     24726      8215  TIP3      H2             34.4366394546       -3.9022898918       11.4897345288  SOLV      8204            0.0000000000
     24727      8216  TIP3      OH2            28.5295736438       -1.9223355006       26.1104644786  SOLV      8205            0.0000000000
     24728      8216  TIP3      H1             28.5369215033       -1.0622790088       26.5714000700  SOLV      8205            0.0000000000
     24729      8216  TIP3      H2             27.5981451920       -2.1811006646       26.2529641408  SOLV      8205            0.0000000000
     24730      8217  TIP3      OH2            31.7311570576        2.6337461098       15.1626930770  SOLV      8206            0.0000000000
     24731      8217  TIP3      H1             32.5555584476        3.1505879966       15.2323355533  SOLV      8206            0.0000000000
     24732      8217  TIP3      H2             31.1340302038        3.2328564651       14.6991381964  SOLV      8206            0.0000000000
     24733      8218  TIP3      OH2            28.8347509510        4.0450937254       25.8687104277  SOLV      8207            0.0000000000
     24734      8218  TIP3      H1             28.4804848879        4.0863459741       24.9557624725  SOLV      8207            0.0000000000
     24735      8218  TIP3      H2             28.0145135211        3.8978790487       26.3911281358  SOLV      8207            0.0000000000
     24736      8219  TIP3      OH2            26.8468044806       -4.2358077054       16.3742081593  SOLV      8208            0.0000000000
     24737      8219  TIP3      H1             26.0949720192       -3.9429197016       15.8193562623  SOLV      8208            0.0000000000
     24738      8219  TIP3      H2             26.6560140652       -5.1714091615       16.5115242059  SOLV      8208            0.0000000000
     24739      8220  TIP3      OH2            37.3945913743        1.9216337474        8.3716415261  SOLV      8209            0.0000000000
     24740      8220  TIP3      H1             37.3903422894        2.8964618507        8.2359130030  SOLV      8209            0.0000000000
     24741      8220  TIP3      H2             38.3079916388        1.7091075776        8.1435491318  SOLV      8209            0.0000000000
     24742      8221  TIP3      OH2            24.6705600093       -0.4597191604       25.4278522074  SOLV      8210            0.0000000000
     24743      8221  TIP3      H1             23.9864479225       -0.6936653178       24.7670944699  SOLV      8210            0.0000000000
     24744      8221  TIP3      H2             25.0585070369       -1.3297341842       25.6612325386  SOLV      8210            0.0000000000
     24745      8222  TIP3      OH2            23.2102833354        1.4509609214       21.7312609882  SOLV      8211            0.0000000000
     24746      8222  TIP3      H1             24.1737333198        1.3925645832       21.6788821263  SOLV      8211            0.0000000000
     24747      8222  TIP3      H2             23.0970167315        2.2221595658       22.3090005839  SOLV      8211            0.0000000000
     24748      8223  TIP3      OH2            32.9798091660        3.8201661634       23.8927961593  SOLV      8212            0.0000000000
     24749      8223  TIP3      H1             32.7387863345        4.7321989363       24.0847080708  SOLV      8212            0.0000000000
     24750      8223  TIP3      H2             32.1944214855        3.3360264881       24.2408920794  SOLV      8212            0.0000000000
     24751      8224  TIP3      OH2            30.5941513748        5.1160363867       13.1792319497  SOLV      8213            0.0000000000
     24752      8224  TIP3      H1             30.0758736810        4.8917946142       12.3856920024  SOLV      8213            0.0000000000
     24753      8224  TIP3      H2             30.1853510745        5.9516479609       13.4707607039  SOLV      8213            0.0000000000
     24754      8225  TIP3      OH2            24.9154096091        3.5867216740       17.0717352107  SOLV      8214            0.0000000000
     24755      8225  TIP3      H1             25.3683289711        3.4949812230       17.9398188366  SOLV      8214            0.0000000000
     24756      8225  TIP3      H2             24.4229300850        2.7473194447       17.0343148505  SOLV      8214            0.0000000000
     24757      8226  TIP3      OH2            32.5534288885        4.1341191257        9.5855733111  SOLV      8215            0.0000000000
     24758      8226  TIP3      H1             33.1198127026        3.4199195619        9.2136800946  SOLV      8215            0.0000000000
     24759      8226  TIP3      H2             32.9090549223        4.2067380173       10.4936592312  SOLV      8215            0.0000000000
     24760      8227  TIP3      OH2            33.0999818589        4.6089168294       12.3024142877  SOLV      8216            0.0000000000
     24761      8227  TIP3      H1             32.1912799481        4.7361928950       12.6613506308  SOLV      8216            0.0000000000
     24762      8227  TIP3      H2             33.4799820380        4.0330618331       12.9845318360  SOLV      8216            0.0000000000
     24763      8228  TIP3      OH2            26.6886837709        1.3875282328       25.2363224245  SOLV      8217            0.0000000000
     24764      8228  TIP3      H1             27.1832997986        1.1570571325       26.0515968241  SOLV      8217            0.0000000000
     24765      8228  TIP3      H2             25.9432206041        0.7516944962       25.2858601510  SOLV      8217            0.0000000000
     24766      8229  TIP3      OH2            30.6925439804      -10.4048185199       23.2414195668  SOLV      8218            0.0000000000
     24767      8229  TIP3      H1             29.7963345775      -10.6470999826       22.9301082294  SOLV      8218            0.0000000000
     24768      8229  TIP3      H2             30.4884626321       -9.5500323099       23.6680078699  SOLV      8218            0.0000000000
     24769      8230  TIP3      OH2            34.8265628931       -3.6625089982        9.8545283574  SOLV      8219            0.0000000000
     24770      8230  TIP3      H1             34.5572932130       -4.0054120016        8.9819279256  SOLV      8219            0.0000000000
     24771      8230  TIP3      H2             35.7386948004       -3.3725905363        9.6561815569  SOLV      8219            0.0000000000
     24772      8231  TIP3      OH2            32.1153650453       -9.9474724590       12.8907027200  SOLV      8220            0.0000000000
     24773      8231  TIP3      H1             31.8213585724       -9.9683265545       13.8260215031  SOLV      8220            0.0000000000
     24774      8231  TIP3      H2             31.7146574449      -10.7790452952       12.5719041046  SOLV      8220            0.0000000000
     24775      8232  TIP3      OH2            29.9649811957       -5.2636188727       23.3763294383  SOLV      8221            0.0000000000
     24776      8232  TIP3      H1             29.4754326586       -5.0402712311       24.1936195597  SOLV      8221            0.0000000000
     24777      8232  TIP3      H2             29.8005798921       -4.4602979592       22.8349942022  SOLV      8221            0.0000000000
     24778      8233  TIP3      OH2            33.7642720240       -5.5608451747       15.7777946931  SOLV      8222            0.0000000000
     24779      8233  TIP3      H1             33.2352242943       -4.8537080426       15.3529343886  SOLV      8222            0.0000000000
     24780      8233  TIP3      H2             34.2692525718       -5.9179850587       15.0221066046  SOLV      8222            0.0000000000
     24781      8234  TIP3      OH2            35.4009224114       -5.2459024759       18.0046058386  SOLV      8223            0.0000000000
     24782      8234  TIP3      H1             34.6619682908       -5.0993629135       17.3811332008  SOLV      8223            0.0000000000
     24783      8234  TIP3      H2             35.6543048782       -6.1414403139       17.7195830553  SOLV      8223            0.0000000000
     24784      8235  TIP3      OH2            28.2153996271       -4.9244814127       25.4962184229  SOLV      8224            0.0000000000
     24785      8235  TIP3      H1             28.6318679597       -4.3500881154       26.1584304564  SOLV      8224            0.0000000000
     24786      8235  TIP3      H2             28.1171591071       -5.7642248992       25.9863445215  SOLV      8224            0.0000000000
     24787      8236  TIP3      OH2            28.7026894126      -10.2074671285       12.4924147305  SOLV      8225            0.0000000000
     24788      8236  TIP3      H1             28.6572699732      -10.2550944110       13.4711055813  SOLV      8225            0.0000000000
     24789      8236  TIP3      H2             27.9419186765       -9.6268410928       12.3021041550  SOLV      8225            0.0000000000
     24790      8237  TIP3      OH2            24.2899698664       -9.8375271340       21.2712238105  SOLV      8226            0.0000000000
     24791      8237  TIP3      H1             24.8988463658       -9.3759897968       21.8798343967  SOLV      8226            0.0000000000
     24792      8237  TIP3      H2             24.7601607013       -9.7339947663       20.4308296490  SOLV      8226            0.0000000000
     24793      8238  TIP3      OH2            23.7272423728      -10.0054753470       16.4405248553  SOLV      8227            0.0000000000
     24794      8238  TIP3      H1             24.2530886960       -9.6754689197       15.6816946171  SOLV      8227            0.0000000000
     24795      8238  TIP3      H2             23.1902356300       -9.2133223736       16.6191875318  SOLV      8227            0.0000000000
     24796      8239  TIP3      OH2            35.2387197696       -2.8100039430       22.2741708738  SOLV      8228            0.0000000000
     24797      8239  TIP3      H1             35.6899537736       -3.4781708339       21.6990753765  SOLV      8228            0.0000000000
     24798      8239  TIP3      H2             35.0248139895       -3.3824812199       23.0429697263  SOLV      8228            0.0000000000
     24799      8240  TIP3      OH2            26.2416219963       -7.9879705511       19.6073484243  SOLV      8229            0.0000000000
     24800      8240  TIP3      H1             25.5736682530       -7.7178075266       18.9478127076  SOLV      8229            0.0000000000
     24801      8240  TIP3      H2             26.8421684216       -8.5693300061       19.0855041530  SOLV      8229            0.0000000000
     24802      8241  TIP3      OH2            29.2112458456       -7.9972524676       15.8234352828  SOLV      8230            0.0000000000
     24803      8241  TIP3      H1             29.8459061287       -7.4263118499       16.2893846516  SOLV      8230            0.0000000000
     24804      8241  TIP3      H2             28.6782925941       -7.3762026523       15.3006476666  SOLV      8230            0.0000000000
     24805      8242  TIP3      OH2            36.9146920086       -7.4180248433       20.7873866376  SOLV      8231            0.0000000000
     24806      8242  TIP3      H1             36.5739609594       -7.3480675084       21.7058177777  SOLV      8231            0.0000000000
     24807      8242  TIP3      H2             36.2744160079       -8.0473767208       20.4197524891  SOLV      8231            0.0000000000
     24808      8243  TIP3      OH2            27.3814910015       -7.0500393976       13.7942185876  SOLV      8232            0.0000000000
     24809      8243  TIP3      H1             26.8134573302       -7.6433712598       13.2742383533  SOLV      8232            0.0000000000
     24810      8243  TIP3      H2             28.0474130418       -6.8044433621       13.1215824033  SOLV      8232            0.0000000000
     24811      8244  TIP3      OH2            28.2180741234        0.5841894942       27.4350198286  SOLV      8233            0.0000000000
     24812      8244  TIP3      H1             29.0503481375        0.8937044537       27.8496822322  SOLV      8233            0.0000000000
     24813      8244  TIP3      H2             27.6509667457        0.4573866263       28.2193724836  SOLV      8233            0.0000000000
     24814      8245  TIP3      OH2            33.3485720721       -4.8312613571       20.3744853138  SOLV      8234            0.0000000000
     24815      8245  TIP3      H1             32.9170682794       -5.1657265973       19.5682202840  SOLV      8234            0.0000000000
     24816      8245  TIP3      H2             32.9361040612       -5.4196988836       21.0215782137  SOLV      8234            0.0000000000
     24817      8246  TIP3      OH2            27.8157447338       -9.9457848995       18.5908206384  SOLV      8235            0.0000000000
     24818      8246  TIP3      H1             27.7892857163      -10.6823714782       19.2241855633  SOLV      8235            0.0000000000
     24819      8246  TIP3      H2             28.7444276257       -9.8948104762       18.3352917892  SOLV      8235            0.0000000000
     24820      8247  TIP3      OH2            32.6336361618       -5.9820473214       23.2153175992  SOLV      8236            0.0000000000
     24821      8247  TIP3      H1             31.7349227162       -5.6044963463       23.1259393741  SOLV      8236            0.0000000000
     24822      8247  TIP3      H2             33.2007675411       -5.1990315017       23.2850460393  SOLV      8236            0.0000000000
     24823      8248  TIP3      OH2            30.0472471298       -2.0036942423       13.8987465809  SOLV      8237            0.0000000000
     24824      8248  TIP3      H1             29.3584251668       -2.6952722126       13.7911901170  SOLV      8237            0.0000000000
     24825      8248  TIP3      H2             29.8528570211       -1.6965592382       14.8191380034  SOLV      8237            0.0000000000
     24826      8249  TIP3      OH2            39.1276582954        0.3638034947       20.2035832834  SOLV      8238            0.0000000000
     24827      8249  TIP3      H1             39.3501462090        0.7708924323       19.3372078221  SOLV      8238            0.0000000000
     24828      8249  TIP3      H2             38.2975287224       -0.1113026965       19.9930791810  SOLV      8238            0.0000000000
     24829      8250  TIP3      OH2            34.6378654439       -8.9548003224       12.5823501613  SOLV      8239            0.0000000000
     24830      8250  TIP3      H1             33.6737190183       -9.1345875190       12.6817100230  SOLV      8239            0.0000000000
     24831      8250  TIP3      H2             34.7193101385       -8.0111009769       12.8321178702  SOLV      8239            0.0000000000
     24832      8251  TIP3      OH2            34.1450255607        1.1621861095       23.9259885609  SOLV      8240            0.0000000000
     24833      8251  TIP3      H1             33.9691065688        0.5837789847       24.6762283703  SOLV      8240            0.0000000000
     24834      8251  TIP3      H2             33.6551784676        1.9681751886       24.1462043961  SOLV      8240            0.0000000000
     24835      8252  TIP3      OH2            35.2827141232       -6.4379360821       13.5843806950  SOLV      8241            0.0000000000
     24836      8252  TIP3      H1             36.2333908502       -6.3719098200       13.7889561097  SOLV      8241            0.0000000000
     24837      8252  TIP3      H2             35.1285346979       -5.6434315521       13.0378214475  SOLV      8241            0.0000000000
     24838      8253  TIP3      OH2            27.1034559671       -1.7972412946       20.5840644799  SOLV      8242            0.0000000000
     24839      8253  TIP3      H1             27.5162733494       -2.1751323152       19.7809134689  SOLV      8242            0.0000000000
     24840      8253  TIP3      H2             27.4923606075       -2.3608610467       21.2699105716  SOLV      8242            0.0000000000
     24841      8254  TIP3      OH2            31.5279599720       -0.5384094629       12.1511201466  SOLV      8243            0.0000000000
     24842      8254  TIP3      H1             31.0407578684        0.3169280033       12.1917301000  SOLV      8243            0.0000000000
     24843      8254  TIP3      H2             30.9881049365       -1.0899494472       12.7604883793  SOLV      8243            0.0000000000
     24844      8255  TIP3      OH2            25.8524342788       -2.5706464896       26.8161747930  SOLV      8244            0.0000000000
     24845      8255  TIP3      H1             26.1079431621       -2.7246344498       27.7477887678  SOLV      8244            0.0000000000
     24846      8255  TIP3      H2             25.1935030222       -3.2707898044       26.6771592234  SOLV      8244            0.0000000000
     24847      8256  TIP3      OH2            32.9353667525       -1.3279638392       26.8573410573  SOLV      8245            0.0000000000
     24848      8256  TIP3      H1             32.4051841952       -2.1216964141       26.6751129108  SOLV      8245            0.0000000000
     24849      8256  TIP3      H2             33.8081512261       -1.6968395733       27.0772237562  SOLV      8245            0.0000000000
     24850      8257  TIP3      OH2            35.7330975667        3.6396068582       22.9165689016  SOLV      8246            0.0000000000
     24851      8257  TIP3      H1             34.7967964707        3.4221185266       23.0637717037  SOLV      8246            0.0000000000
     24852      8257  TIP3      H2             35.8354276074        4.4241777508       23.4719559951  SOLV      8246            0.0000000000
     24853      8258  TIP3      OH2            36.7656400129        2.5523110083       11.0646404553  SOLV      8247            0.0000000000
     24854      8258  TIP3      H1             36.5379270405        1.8354767751       11.6734426201  SOLV      8247            0.0000000000
     24855      8258  TIP3      H2             36.9263966261        2.0866770285       10.2246082631  SOLV      8247            0.0000000000
     24856      8259  TIP3      OH2            36.6321837573       -0.9090731632       19.3852798148  SOLV      8248            0.0000000000
     24857      8259  TIP3      H1             35.7117473396       -1.1937887782       19.5376076241  SOLV      8248            0.0000000000
     24858      8259  TIP3      H2             36.9469628048       -1.6822715074       18.8660859519  SOLV      8248            0.0000000000
     24859      8260  TIP3      OH2            28.0455736974        1.2738555935       16.9983017400  SOLV      8249            0.0000000000
     24860      8260  TIP3      H1             27.9889877997        2.0505181447       16.4103991870  SOLV      8249            0.0000000000
     24861      8260  TIP3      H2             27.1176848675        1.0260930147       17.0805865574  SOLV      8249            0.0000000000
     24862      8261  TIP3      OH2            23.6657301050       -5.7391904523       13.9825420686  SOLV      8250            0.0000000000
     24863      8261  TIP3      H1             24.1349005430       -4.9081341753       14.2116153839  SOLV      8250            0.0000000000
     24864      8261  TIP3      H2             22.9251303261       -5.7130533574       14.6269719781  SOLV      8250            0.0000000000
     24865      8262  TIP3      OH2            29.3055225730       -1.1616033675       16.3472196386  SOLV      8251            0.0000000000
     24866      8262  TIP3      H1             28.9801512076       -0.2848982906       16.6245221183  SOLV      8251            0.0000000000
     24867      8262  TIP3      H2             29.1196608115       -1.7163652972       17.1264580433  SOLV      8251            0.0000000000
     24868      8263  TIP3      OH2            30.7742573172        4.6307140465       21.6087935189  SOLV      8252            0.0000000000
     24869      8263  TIP3      H1             31.1410645715        5.2462687429       20.9373791499  SOLV      8252            0.0000000000
     24870      8263  TIP3      H2             31.5713701735        4.1553074606       21.8732159638  SOLV      8252            0.0000000000
     24871      8264  TIP3      OH2            27.1883131874        3.6556477443       15.4383650889  SOLV      8253            0.0000000000
     24872      8264  TIP3      H1             26.3464701342        3.7287060513       15.9320605398  SOLV      8253            0.0000000000
     24873      8264  TIP3      H2             27.5029378471        4.5849283708       15.4693234717  SOLV      8253            0.0000000000
     24874      8265  TIP3      OH2            34.5856049005        1.0638775760       21.2156372435  SOLV      8254            0.0000000000
     24875      8265  TIP3      H1             34.5832759154        0.9994434751       22.1974616894  SOLV      8254            0.0000000000
     24876      8265  TIP3      H2             35.3524122962        0.5090994148       21.0006310502  SOLV      8254            0.0000000000
     24877      8266  TIP3      OH2            34.3649968473        0.0165742794       10.0591439216  SOLV      8255            0.0000000000
     24878      8266  TIP3      H1             34.8820709147       -0.2270130194       10.8628759480  SOLV      8255            0.0000000000
     24879      8266  TIP3      H2             33.5038371387       -0.3600373265       10.2969161009  SOLV      8255            0.0000000000
     24880      8267  TIP3      OH2            37.5841641422        4.6479119672        8.1636114684  SOLV      8256            0.0000000000
     24881      8267  TIP3      H1             37.9703062023        5.3361134266        7.5991718020  SOLV      8256            0.0000000000
     24882      8267  TIP3      H2             36.7996878076        5.1363531134        8.4909244562  SOLV      8256            0.0000000000
     24883      8268  TIP3      OH2            27.7644727426       -7.4783515667       26.7515735253  SOLV      8257            0.0000000000
     24884      8268  TIP3      H1             26.8041750472       -7.3103464901       26.8456498002  SOLV      8257            0.0000000000
     24885      8268  TIP3      H2             27.9112374458       -8.0799048925       27.4919518678  SOLV      8257            0.0000000000
     24886      8269  TIP3      OH2            35.8247591241       -0.6313039624       12.2722266218  SOLV      8258            0.0000000000
     24887      8269  TIP3      H1             35.7601905455       -1.3345688319       12.9530402565  SOLV      8258            0.0000000000
     24888      8269  TIP3      H2             36.7745907586       -0.7245594025       12.0358637292  SOLV      8258            0.0000000000
     24889      8270  TIP3      OH2            25.1060787560        3.2572589069       23.1746375979  SOLV      8259            0.0000000000
     24890      8270  TIP3      H1             25.6530038029        2.5650996353       23.5817505812  SOLV      8259            0.0000000000
     24891      8270  TIP3      H2             25.3175225532        4.0204641369       23.7292545843  SOLV      8259            0.0000000000
     24892      8271  TIP3      OH2            27.9822927954       -0.2462958598       10.0643587404  SOLV      8260            0.0000000000
     24893      8271  TIP3      H1             28.1184467261       -1.1769269448        9.8047455956  SOLV      8260            0.0000000000
     24894      8271  TIP3      H2             27.7678375043       -0.3459859043       11.0138810926  SOLV      8260            0.0000000000
     24895      8272  TIP3      OH2            27.4261114551       -0.1956606685       12.7775748708  SOLV      8261            0.0000000000
     24896      8272  TIP3      H1             28.1895303751       -0.5070543151       13.2869461021  SOLV      8261            0.0000000000
     24897      8272  TIP3      H2             27.4905350728        0.7790970910       12.8834506045  SOLV      8261            0.0000000000
     24898      8273  TIP3      OH2            24.7232099372       -3.3136171677       14.7994329196  SOLV      8262            0.0000000000
     24899      8273  TIP3      H1             24.0724479276       -2.8488778463       15.3662860685  SOLV      8262            0.0000000000
     24900      8273  TIP3      H2             24.8862487959       -2.6274893521       14.1245198938  SOLV      8262            0.0000000000
     24901      8274  TIP3      OH2            35.9078548597       -6.9314682922       23.3205843844  SOLV      8263            0.0000000000
     24902      8274  TIP3      H1             36.5650271794       -6.3108907145       23.6800068413  SOLV      8263            0.0000000000
     24903      8274  TIP3      H2             35.5133283146       -7.3527016079       24.1002047190  SOLV      8263            0.0000000000
     24904      8275  TIP3      OH2            35.0992818783       -9.5270668699       15.3868512490  SOLV      8264            0.0000000000
     24905      8275  TIP3      H1             34.9687181583       -9.2539199680       14.4590432554  SOLV      8264            0.0000000000
     24906      8275  TIP3      H2             35.4782494901       -8.7100946376       15.7872023187  SOLV      8264            0.0000000000
     24907      8276  TIP3      OH2            30.1406527748        1.7776962753       12.2571861928  SOLV      8265            0.0000000000
     24908      8276  TIP3      H1             29.2656482505        1.9980571635       12.6334091835  SOLV      8265            0.0000000000
     24909      8276  TIP3      H2             30.2311471373        2.4863986348       11.6038549566  SOLV      8265            0.0000000000
     24910      8277  TIP3      OH2            31.9819530623       -7.5249387030       16.7198628091  SOLV      8266            0.0000000000
     24911      8277  TIP3      H1             32.6387106082       -6.8537337031       16.4507648285  SOLV      8266            0.0000000000
     24912      8277  TIP3      H2             31.5978163544       -7.0910479142       17.5140384487  SOLV      8266            0.0000000000
     24913      8278  TIP3      OH2            34.7319088339       -4.3473763917       24.4364939756  SOLV      8267            0.0000000000
     24914      8278  TIP3      H1             34.6029421254       -4.1348413351       25.3675685499  SOLV      8267            0.0000000000
     24915      8278  TIP3      H2             35.0066448125       -5.2757078503       24.4599835377  SOLV      8267            0.0000000000
     24916      8279  TIP3      OH2            33.4791215318      -10.4495811011       17.4481398150  SOLV      8268            0.0000000000
     24917      8279  TIP3      H1             33.7119128985       -9.8371327142       18.1793783202  SOLV      8268            0.0000000000
     24918      8279  TIP3      H2             33.9815632003      -10.0329246488       16.7115654776  SOLV      8268            0.0000000000
     24919      8280  TIP3      OH2            27.6113011741        2.5365504718       12.9590710444  SOLV      8269            0.0000000000
     24920      8280  TIP3      H1             27.2895599875        3.2366023385       12.3501523821  SOLV      8269            0.0000000000
     24921      8280  TIP3      H2             27.4231291892        2.9432266592       13.8341531364  SOLV      8269            0.0000000000
     24922      8281  TIP3      OH2            28.6028744648      -10.5347425170       15.1889963725  SOLV      8270            0.0000000000
     24923      8281  TIP3      H1             28.6354996082       -9.6012460059       15.5107581255  SOLV      8270            0.0000000000
     24924      8281  TIP3      H2             29.5321206944      -10.7668871169       15.3724549983  SOLV      8270            0.0000000000
     24925      8282  TIP3      OH2            37.2461667149       -3.1763438174       17.9712546755  SOLV      8271            0.0000000000
     24926      8282  TIP3      H1             36.5715693886       -3.8718472657       18.1370494444  SOLV      8271            0.0000000000
     24927      8282  TIP3      H2             38.0195500787       -3.5272998059       18.4765488466  SOLV      8271            0.0000000000
     24928      8283  TIP3      OH2            24.7601615284       -1.2426483419       12.8341072201  SOLV      8272            0.0000000000
     24929      8283  TIP3      H1             25.4981159551       -0.6113908820       12.9385050719  SOLV      8272            0.0000000000
     24930      8283  TIP3      H2             25.1764804506       -1.8466702506       12.1793950936  SOLV      8272            0.0000000000
     24931      8284  TIP3      OH2            24.1167247813       -8.4556269998       14.1969066086  SOLV      8273            0.0000000000
     24932      8284  TIP3      H1             24.2693779037       -7.4909637276       14.1901408335  SOLV      8273            0.0000000000
     24933      8284  TIP3      H2             23.2779316720       -8.5183573749       13.7306298919  SOLV      8273            0.0000000000
     24934      8285  TIP3      OH2            37.3208371426        6.1506277710       17.6939713985  SOLV      8274            0.0000000000
     24935      8285  TIP3      H1             36.9882266033        6.6039656290       16.8965193326  SOLV      8274            0.0000000000
     24936      8285  TIP3      H2             38.2424050545        5.9731716888       17.4724203613  SOLV      8274            0.0000000000
     24937      8286  TIP3      OH2            28.0041832895      -11.1771537394       22.9143966715  SOLV      8275            0.0000000000
     24938      8286  TIP3      H1             27.7384957188      -11.4568831240       22.0082846120  SOLV      8275            0.0000000000
     24939      8286  TIP3      H2             27.8585107188      -11.9951069379       23.4203384143  SOLV      8275            0.0000000000
     24940      8287  TIP3      OH2            23.4025779223        0.9557276180       16.6664412002  SOLV      8276            0.0000000000
     24941      8287  TIP3      H1             22.8027997814        1.2471528574       17.3680993940  SOLV      8276            0.0000000000
     24942      8287  TIP3      H2             23.0147672347        1.4004894358       15.8740446441  SOLV      8276            0.0000000000
     24943      8288  TIP3      OH2            24.9199442887        6.1721933679       27.4062626489  SOLV      8277            0.0000000000
     24944      8288  TIP3      H1             25.8235410617        5.8356126661       27.5239486845  SOLV      8277            0.0000000000
     24945      8288  TIP3      H2             24.4288641832        5.3332567561       27.3701247141  SOLV      8277            0.0000000000
     24946      8289  TIP3      OH2            29.9418309663        5.4993557321       27.8967976530  SOLV      8278            0.0000000000
     24947      8289  TIP3      H1             30.6311276196        5.9677649956       27.3836318414  SOLV      8278            0.0000000000
     24948      8289  TIP3      H2             29.5029569791        4.9530292920       27.2078976553  SOLV      8278            0.0000000000
     24949      8290  TIP3      OH2            29.6352449736        1.7517818127        9.1542272515  SOLV      8279            0.0000000000
     24950      8290  TIP3      H1             29.0713721781        1.0325570476        9.5262638482  SOLV      8279            0.0000000000
     24951      8290  TIP3      H2             30.3914049104        1.2322990677        8.8271328176  SOLV      8279            0.0000000000
     24952      8291  TIP3      OH2            33.9728741517        2.1436687852        8.3239374395  SOLV      8280            0.0000000000
     24953      8291  TIP3      H1             34.3221661589        1.4555196659        8.9290970278  SOLV      8280            0.0000000000
     24954      8291  TIP3      H2             34.5524980905        2.0578222794        7.5422953367  SOLV      8280            0.0000000000
     24955      8292  TIP3      OH2            26.2716313109        0.3414489092       29.4352879175  SOLV      8281            0.0000000000
     24956      8292  TIP3      H1             26.4686989033       -0.6143079203       29.4654388276  SOLV      8281            0.0000000000
     24957      8292  TIP3      H2             25.4311920079        0.3587108554       28.9237257731  SOLV      8281            0.0000000000
     24958      8293  TIP3      OH2            26.1099617542       -3.1077563778       11.4240163147  SOLV      8282            0.0000000000
     24959      8293  TIP3      H1             26.6809934041       -3.4080928448       12.1565868896  SOLV      8282            0.0000000000
     24960      8293  TIP3      H2             26.7783985625       -3.0435195156       10.7059748048  SOLV      8282            0.0000000000
     24961      8294  TIP3      OH2            32.6155876706        1.3687014751       26.9534371233  SOLV      8283            0.0000000000
     24962      8294  TIP3      H1             32.0330557370        1.5617261113       26.1949077702  SOLV      8283            0.0000000000
     24963      8294  TIP3      H2             32.6959723878        0.3853051861       26.9247818654  SOLV      8283            0.0000000000
     24964      8295  TIP3      OH2            31.2707971506       -1.0618174602        9.4661520727  SOLV      8284            0.0000000000
     24965      8295  TIP3      H1             31.2821672234       -0.9633508851       10.4408720882  SOLV      8284            0.0000000000
     24966      8295  TIP3      H2             31.2740535836       -2.0425480792        9.3892367432  SOLV      8284            0.0000000000
     24967      8296  TIP3      OH2            37.1166831248        1.2230998350       22.8833943895  SOLV      8285            0.0000000000
     24968      8296  TIP3      H1             37.9166813123        1.6160761944       22.4848373774  SOLV      8285            0.0000000000
     24969      8296  TIP3      H2             36.5350598450        2.0100763717       22.9110365692  SOLV      8285            0.0000000000
     24970      8297  TIP3      OH2            27.6063770933       -2.2097114974       29.1533823584  SOLV      8286            0.0000000000
     24971      8297  TIP3      H1             28.3847361600       -2.7505826527       28.9207054752  SOLV      8286            0.0000000000
     24972      8297  TIP3      H2             27.7913473576       -2.0212613981       30.0943605999  SOLV      8286            0.0000000000
     24973      8298  TIP3      OH2            28.1277563685       -3.9713020585       13.5452845581  SOLV      8287            0.0000000000
     24974      8298  TIP3      H1             27.8594420586       -4.3686485489       14.3900463906  SOLV      8287            0.0000000000
     24975      8298  TIP3      H2             28.5231504462       -4.7391419829       13.0812993962  SOLV      8287            0.0000000000
     24976      8299  TIP3      OH2            30.9481314147       -3.3699914119       25.8578576291  SOLV      8288            0.0000000000
     24977      8299  TIP3      H1             30.1575063345       -2.7910395943       25.8965732891  SOLV      8288            0.0000000000
     24978      8299  TIP3      H2             31.4389378108       -2.9915856136       25.0911487671  SOLV      8288            0.0000000000
     24979      8300  TIP3      OH2            29.2040160721       -6.0407444744       11.9934839456  SOLV      8289            0.0000000000
     24980      8300  TIP3      H1             28.9851254121       -5.9467887832       11.0444073873  SOLV      8289            0.0000000000
     24981      8300  TIP3      H2             30.1829319502       -6.0665067104       11.9506396335  SOLV      8289            0.0000000000
     24982      8301  TIP3      OH2            35.8136380442       -1.0352908969       26.8998499221  SOLV      8290            0.0000000000
     24983      8301  TIP3      H1             36.2291819783       -0.6581494991       26.1112700038  SOLV      8290            0.0000000000
     24984      8301  TIP3      H2             35.6228829845       -0.2434025800       27.4359242680  SOLV      8290            0.0000000000
     24985      8302  TIP3      OH2            37.1482638474       -2.7976361618        8.6388493095  SOLV      8291            0.0000000000
     24986      8302  TIP3      H1             36.9082988274       -3.2827904658        7.8257327849  SOLV      8291            0.0000000000
     24987      8302  TIP3      H2             36.8308168086       -1.8962995019        8.4000890888  SOLV      8291            0.0000000000
     24988      8303  TIP3      OH2            31.9510935647       -5.5457033563       27.2109136625  SOLV      8292            0.0000000000
     24989      8303  TIP3      H1             32.0260852718       -6.2793152812       26.5675775542  SOLV      8292            0.0000000000
     24990      8303  TIP3      H2             31.5844091641       -4.8253295386       26.6548794327  SOLV      8292            0.0000000000
     24991      8304  TIP3      OH2            32.0936018885       -7.5700881700       25.3320877714  SOLV      8293            0.0000000000
     24992      8304  TIP3      H1             32.3329718737       -7.0780732649       24.5123344911  SOLV      8293            0.0000000000
     24993      8304  TIP3      H2             31.1689048686       -7.8251084339       25.1285886923  SOLV      8293            0.0000000000
     24994      8305  TIP3      OH2            32.3937853400       -2.2855480954       23.8605654951  SOLV      8294            0.0000000000
     24995      8305  TIP3      H1             33.2245902677       -2.2275143675       23.3697684840  SOLV      8294            0.0000000000
     24996      8305  TIP3      H2             31.8294045735       -1.6241474528       23.4083344248  SOLV      8294            0.0000000000
     24997      8306  TIP3      OH2            38.0713102869       -0.1781849271       24.9723228338  SOLV      8295            0.0000000000
     24998      8306  TIP3      H1             37.5467466598        0.3016151668       24.2850783501  SOLV      8295            0.0000000000
     24999      8306  TIP3      H2             38.8890495080        0.3465125753       24.9279037682  SOLV      8295            0.0000000000
     25000      8307  TIP3      OH2            30.1586101016       -3.9554432420       28.9202038079  SOLV      8296            0.0000000000
     25001      8307  TIP3      H1             29.9261513097       -4.5718251942       29.6295466061  SOLV      8296            0.0000000000
     25002      8307  TIP3      H2             30.9460398534       -4.3820379699       28.5360642100  SOLV      8296            0.0000000000
     25003      8308  TIP3      OH2            33.6113847464       -9.8793759886       24.8641508192  SOLV      8297            0.0000000000
     25004      8308  TIP3      H1             33.3137806010       -8.9730650571       25.0576086626  SOLV      8297            0.0000000000
     25005      8308  TIP3      H2             32.8811919297      -10.3948518122       25.2100610841  SOLV      8297            0.0000000000
     25006      8309  TIP3      OH2            29.3731262502       -6.6598073740       29.7411587261  SOLV      8298            0.0000000000
     25007      8309  TIP3      H1             29.9611260922       -6.9086954406       29.0171843599  SOLV      8298            0.0000000000
     25008      8309  TIP3      H2             29.9247763485       -6.8128747670       30.5230810192  SOLV      8298            0.0000000000
     25009      8310  TIP3      OH2            27.3059479982        4.6206690470       11.1129266072  SOLV      8299            0.0000000000
     25010      8310  TIP3      H1             28.2417370821        4.4746898768       10.8795315796  SOLV      8299            0.0000000000
     25011      8310  TIP3      H2             27.0095826736        5.0986855890       10.3154409215  SOLV      8299            0.0000000000
     25012      8311  TIP3      OH2            22.0629466201       -1.6098112621       13.1915818833  SOLV      8300            0.0000000000
     25013      8311  TIP3      H1             23.0145116491       -1.4066573543       13.0497333511  SOLV      8300            0.0000000000
     25014      8311  TIP3      H2             22.0001173652       -2.5059267075       12.7981832228  SOLV      8300            0.0000000000
     25015      8312  TIP3      OH2            21.2544716320        4.4967547326       17.3961680332  SOLV      8301            0.0000000000
     25016      8312  TIP3      H1             20.5999747316        3.8931636890       16.9841065933  SOLV      8301            0.0000000000
     25017      8312  TIP3      H2             21.6869323489        3.8865110601       18.0319130848  SOLV      8301            0.0000000000
     25018      8313  TIP3      OH2            22.5699505362        2.9236947688       19.2551356255  SOLV      8302            0.0000000000
     25019      8313  TIP3      H1             22.4443314926        2.2404539263       19.9363620880  SOLV      8302            0.0000000000
     25020      8313  TIP3      H2             23.0958818789        3.5692471109       19.7634133397  SOLV      8302            0.0000000000
     25021      8314  TIP3      OH2            38.4860805637       -0.7978818916       11.8479019119  SOLV      8303            0.0000000000
     25022      8314  TIP3      H1             39.0349281024        0.0031579581       11.6992878859  SOLV      8303            0.0000000000
     25023      8314  TIP3      H2             38.9137850930       -1.1563999338       12.6568144419  SOLV      8303            0.0000000000
     25024      8315  TIP3      OH2            39.5434573897       -1.8613695138       14.1540387564  SOLV      8304            0.0000000000
     25025      8315  TIP3      H1             38.9659933360       -2.6003828146       14.4541730967  SOLV      8304            0.0000000000
     25026      8315  TIP3      H2             39.5501830621       -1.3164357346       14.9526303957  SOLV      8304            0.0000000000
     25027      8316  TIP3      OH2            40.2374566253        1.5381055315       17.9886324814  SOLV      8305            0.0000000000
     25028      8316  TIP3      H1             41.0662596031        1.0884441902       17.7051499548  SOLV      8305            0.0000000000
     25029      8316  TIP3      H2             40.2853564019        2.3436194879       17.4599808357  SOLV      8305            0.0000000000
     25030      8317  TIP3      OH2            38.6410049220        4.2832449686       19.9643218069  SOLV      8306            0.0000000000
     25031      8317  TIP3      H1             37.7570093267        4.3903443797       20.3452023096  SOLV      8306            0.0000000000
     25032      8317  TIP3      H2             38.4085040236        3.6894091425       19.2210441165  SOLV      8306            0.0000000000
     25033      8318  TIP3      OH2            39.0948046885       -3.1917765644       10.5420050105  SOLV      8307            0.0000000000
     25034      8318  TIP3      H1             38.3926860023       -3.2457128029        9.8632049887  SOLV      8307            0.0000000000
     25035      8318  TIP3      H2             38.8244342804       -2.3758345091       11.0006758930  SOLV      8307            0.0000000000
     25036      8319  TIP3      OH2            37.2437717677       -6.2981848778       10.2239244130  SOLV      8308            0.0000000000
     25037      8319  TIP3      H1             38.0856294200       -6.0374223006        9.8279678657  SOLV      8308            0.0000000000
     25038      8319  TIP3      H2             37.3226682381       -7.2728058852       10.2075724078  SOLV      8308            0.0000000000
     25039      8320  TIP3      OH2            38.0479639759       -3.7264417748       15.4286811351  SOLV      8309            0.0000000000
     25040      8320  TIP3      H1             38.1049472583       -4.6954073037       15.4749672320  SOLV      8309            0.0000000000
     25041      8320  TIP3      H2             37.8253807962       -3.4993945890       16.3631867516  SOLV      8309            0.0000000000
     25042      8321  TIP3      OH2            24.3977075925       -2.9310535911       22.9561491734  SOLV      8310            0.0000000000
     25043      8321  TIP3      H1             24.3787005290       -3.2989329096       22.0472793717  SOLV      8310            0.0000000000
     25044      8321  TIP3      H2             25.3697196496       -2.9286540546       23.1255788809  SOLV      8310            0.0000000000
     25045      8322  TIP3      OH2            37.5520359665       -9.0661883784       10.2371453663  SOLV      8311            0.0000000000
     25046      8322  TIP3      H1             38.2051450529       -9.7686044442       10.3351844644  SOLV      8311            0.0000000000
     25047      8322  TIP3      H2             36.7660103408       -9.5565034898        9.9434215455  SOLV      8311            0.0000000000
     25048      8323  TIP3      OH2            38.0006294740       -6.5058321005       14.6065506729  SOLV      8312            0.0000000000
     25049      8323  TIP3      H1             38.3800114829       -7.3977997659       14.7879349648  SOLV      8312            0.0000000000
     25050      8323  TIP3      H2             38.6204408834       -6.1592435173       13.9541354222  SOLV      8312            0.0000000000
     25051      8324  TIP3      OH2            39.4878726874       -4.0645620216       19.1305214966  SOLV      8313            0.0000000000
     25052      8324  TIP3      H1             40.0877186163       -4.8121004822       18.9318282361  SOLV      8313            0.0000000000
     25053      8324  TIP3      H2             39.8564826336       -3.7041185504       19.9538523700  SOLV      8313            0.0000000000
     25054      8325  TIP3      OH2            40.2197238570       -3.0589009579       21.6921729342  SOLV      8314            0.0000000000
     25055      8325  TIP3      H1             39.3934906946       -2.6035347594       21.9654774113  SOLV      8314            0.0000000000
     25056      8325  TIP3      H2             40.7467360524       -2.3193347141       21.3024805313  SOLV      8314            0.0000000000
     25057      8326  TIP3      OH2            26.5918233346       -6.1558574069       29.5917592069  SOLV      8315            0.0000000000
     25058      8326  TIP3      H1             27.5698155490       -6.1717546210       29.6698445649  SOLV      8315            0.0000000000
     25059      8326  TIP3      H2             26.3524580096       -6.9691805298       30.0801986746  SOLV      8315            0.0000000000
     25060      8327  TIP3      OH2            38.9709527147       -9.0636783086       15.0651989277  SOLV      8316            0.0000000000
     25061      8327  TIP3      H1             39.4412610351       -9.5462607323       15.7662502809  SOLV      8316            0.0000000000
     25062      8327  TIP3      H2             38.3167102962       -9.7630605865       14.8311688251  SOLV      8316            0.0000000000
     25063      8328  TIP3      OH2            26.2392531392       -9.0286905505       23.1246745657  SOLV      8317            0.0000000000
     25064      8328  TIP3      H1             26.8246191327       -9.8121684197       23.1276425481  SOLV      8317            0.0000000000
     25065      8328  TIP3      H2             26.8608329427       -8.3510125630       22.8036192976  SOLV      8317            0.0000000000
     25066      8329  TIP3      OH2            24.1853729640       -6.4233624817       23.7065640616  SOLV      8318            0.0000000000
     25067      8329  TIP3      H1             24.7380771273       -6.4378976454       22.8967050913  SOLV      8318            0.0000000000
     25068      8329  TIP3      H2             24.4878252274       -5.6086244312       24.1230807216  SOLV      8318            0.0000000000
     25069      8330  TIP3      OH2            24.0300742813      -11.5971953543       18.6051584043  SOLV      8319            0.0000000000
     25070      8330  TIP3      H1             23.1754161863      -11.4384826828       19.0314767001  SOLV      8319            0.0000000000
     25071      8330  TIP3      H2             24.0563478881      -10.8866096235       17.9300297666  SOLV      8319            0.0000000000
     25072      8331  TIP3      OH2            35.8341323616        5.7590221577       13.8508883255  SOLV      8320            0.0000000000
     25073      8331  TIP3      H1             35.8899760922        5.4241138910       12.9307883574  SOLV      8320            0.0000000000
     25074      8331  TIP3      H2             36.7521881822        6.0317355863       13.9510726183  SOLV      8320            0.0000000000
     25075      8332  TIP3      OH2            26.2792720115      -10.5937351584       26.8605826688  SOLV      8321            0.0000000000
     25076      8332  TIP3      H1             25.7781274735      -10.6137468037       27.6932656023  SOLV      8321            0.0000000000
     25077      8332  TIP3      H2             25.6456086278      -10.1301487899       26.2766110086  SOLV      8321            0.0000000000
     25078      8333  TIP3      OH2            26.6623929766        3.8073042793       27.6488469814  SOLV      8322            0.0000000000
     25079      8333  TIP3      H1             25.7284024437        3.5704274123       27.4847495614  SOLV      8322            0.0000000000
     25080      8333  TIP3      H2             26.8315965000        3.3626161996       28.4875002444  SOLV      8322            0.0000000000
     25081      8334  TIP3      OH2            28.4822377105        4.0382357381       23.0489609511  SOLV      8323            0.0000000000
     25082      8334  TIP3      H1             27.9643418078        4.7750569135       22.6571595283  SOLV      8323            0.0000000000
     25083      8334  TIP3      H2             29.3366965250        4.2084391959       22.6023232500  SOLV      8323            0.0000000000
     25084      8335  TIP3      OH2            25.2008913304        6.5983186393       23.3848257447  SOLV      8324            0.0000000000
     25085      8335  TIP3      H1             24.2961570252        6.9253330380       23.1743004567  SOLV      8324            0.0000000000
     25086      8335  TIP3      H2             25.3606650482        7.0737840827       24.2149935762  SOLV      8324            0.0000000000
     25087      8336  TIP3      OH2            27.5085042294        6.3275962471       21.9058015651  SOLV      8325            0.0000000000
     25088      8336  TIP3      H1             26.6545730991        6.4867665244       22.3724936917  SOLV      8325            0.0000000000
     25089      8336  TIP3      H2             27.3240151743        6.7217051153       21.0288649175  SOLV      8325            0.0000000000
     25090      8337  TIP3      OH2            31.7715641914        6.1714920068       19.5554095235  SOLV      8326            0.0000000000
     25091      8337  TIP3      H1             31.0639083630        6.3102779331       18.9011234512  SOLV      8326            0.0000000000
     25092      8337  TIP3      H2             31.8499442917        7.0905754534       19.9098050590  SOLV      8326            0.0000000000
     25093      8338  TIP3      OH2            34.4786562190        6.1155253491       20.6893696980  SOLV      8327            0.0000000000
     25094      8338  TIP3      H1             33.6437542971        6.1432379548       20.1891035718  SOLV      8327            0.0000000000
     25095      8338  TIP3      H2             34.9770762841        6.8437597021       20.2732425372  SOLV      8327            0.0000000000
     25096      8339  TIP3      OH2            36.2202400922        8.0295831967       19.4242858457  SOLV      8328            0.0000000000
     25097      8339  TIP3      H1             36.8551964688        8.7641508567       19.3235480661  SOLV      8328            0.0000000000
     25098      8339  TIP3      H2             36.5765902862        7.3407050123       18.8248975967  SOLV      8328            0.0000000000
     25099      8340  TIP3      OH2            24.3396079777        4.5325787991       20.7835740614  SOLV      8329            0.0000000000
     25100      8340  TIP3      H1             24.5825860679        4.2483562790       21.6894048080  SOLV      8329            0.0000000000
     25101      8340  TIP3      H2             25.0601403331        4.0883002702       20.2851451533  SOLV      8329            0.0000000000
     25102      8341  TIP3      OH2            26.2917534611        3.2517208448       19.4074981250  SOLV      8330            0.0000000000
     25103      8341  TIP3      H1             26.4353713466        2.4121217438       19.9074204532  SOLV      8330            0.0000000000
     25104      8341  TIP3      H2             27.2085249710        3.5890628412       19.3452353274  SOLV      8330            0.0000000000
     25105      8342  TIP3      OH2            28.9658271732        4.1759020360       19.4043856691  SOLV      8331            0.0000000000
     25106      8342  TIP3      H1             29.2674944443        3.2493431028       19.3200740677  SOLV      8331            0.0000000000
     25107      8342  TIP3      H2             29.3910021074        4.4068250373       20.2491812867  SOLV      8331            0.0000000000
     25108      8343  TIP3      OH2            34.5549672085       -9.3022799792       19.8974453300  SOLV      8332            0.0000000000
     25109      8343  TIP3      H1             34.1543722461       -9.7786714042       20.6416797975  SOLV      8332            0.0000000000
     25110      8343  TIP3      H2             35.4406965237       -9.7135222811       19.8172442627  SOLV      8332            0.0000000000
     25111      8344  TIP3      OH2            39.9096227710       -9.9534016339       19.0320102691  SOLV      8333            0.0000000000
     25112      8344  TIP3      H1             40.4786716538       -9.1723131619       18.9365331153  SOLV      8333            0.0000000000
     25113      8344  TIP3      H2             39.0971734159       -9.5376837385       19.3725277042  SOLV      8333            0.0000000000
     25114      8345  TIP3      OH2            27.1690919607      -12.1531453597       20.5079447669  SOLV      8334            0.0000000000
     25115      8345  TIP3      H1             26.2246629673      -12.4107246574       20.4956856883  SOLV      8334            0.0000000000
     25116      8345  TIP3      H2             27.5955084789      -13.0134221771       20.3304153166  SOLV      8334            0.0000000000
     25117      8346  TIP3      OH2            25.0362833042      -13.4853776409       16.8835445927  SOLV      8335            0.0000000000
     25118      8346  TIP3      H1             25.3897227716      -12.8879458686       16.1995603702  SOLV      8335            0.0000000000
     25119      8346  TIP3      H2             24.7600927623      -12.8373785929       17.5726128259  SOLV      8335            0.0000000000
     25120      8347  TIP3      OH2            31.7034191710      -11.8802171814       19.2467782073  SOLV      8336            0.0000000000
     25121      8347  TIP3      H1             32.1548646364      -11.3346410560       18.5818930987  SOLV      8336            0.0000000000
     25122      8347  TIP3      H2             32.1085243433      -11.5440835933       20.0745558049  SOLV      8336            0.0000000000
     25123      8348  TIP3      OH2            36.9438113374      -10.2356026541       19.1007891197  SOLV      8337            0.0000000000
     25124      8348  TIP3      H1             37.0581437786       -9.9616883425       18.1813173850  SOLV      8337            0.0000000000
     25125      8348  TIP3      H2             36.9659237854      -11.2046001049       19.0571181213  SOLV      8337            0.0000000000
     25126      8349  TIP3      OH2            37.2424840330      -11.1508594444       14.9287127974  SOLV      8338            0.0000000000
     25127      8349  TIP3      H1             36.3717313776      -10.7107032091       15.0160674531  SOLV      8338            0.0000000000
     25128      8349  TIP3      H2             37.0315082904      -12.0689563536       15.1749740616  SOLV      8338            0.0000000000
     25129      8350  TIP3      OH2            22.2018812859        2.3259913672       14.6688341207  SOLV      8339            0.0000000000
     25130      8350  TIP3      H1             21.3400236693        1.9903603717       14.3589157654  SOLV      8339            0.0000000000
     25131      8350  TIP3      H2             22.1193752052        3.2560029291       14.3843715721  SOLV      8339            0.0000000000
     25132      8351  TIP3      OH2            26.2416641249      -11.8977556127       14.5433014292  SOLV      8340            0.0000000000
     25133      8351  TIP3      H1             26.7412127247      -12.4946584956       13.9561357601  SOLV      8340            0.0000000000
     25134      8351  TIP3      H2             26.9737546727      -11.3579085893       14.9161293024  SOLV      8340            0.0000000000
     25135      8352  TIP3      OH2            31.4304605403      -10.0937498139       15.5617676802  SOLV      8341            0.0000000000
     25136      8352  TIP3      H1             32.0757021665      -10.3708607167       16.2347866221  SOLV      8341            0.0000000000
     25137      8352  TIP3      H2             31.3426887698       -9.1494426422       15.8139755948  SOLV      8341            0.0000000000
     25138      8353  TIP3      OH2            29.9480897924        4.0944498649       10.5213200603  SOLV      8342            0.0000000000
     25139      8353  TIP3      H1             30.8291234706        4.3204406709       10.1574240877  SOLV      8342            0.0000000000
     25140      8353  TIP3      H2             29.7192957956        3.3528157789        9.9145467086  SOLV      8342            0.0000000000
     25141      8354  TIP3      OH2            36.9300209703        5.2038139203       11.4277963672  SOLV      8343            0.0000000000
     25142      8354  TIP3      H1             36.9067639999        4.2215920452       11.3128145744  SOLV      8343            0.0000000000
     25143      8354  TIP3      H2             36.5459093032        5.5029685575       10.5793846572  SOLV      8343            0.0000000000
     25144      8355  TIP3      OH2            22.9810383453        2.4843033939       11.0626202250  SOLV      8344            0.0000000000
     25145      8355  TIP3      H1             22.9996073099        2.6545411331       12.0144570781  SOLV      8344            0.0000000000
     25146      8355  TIP3      H2             23.8517743235        2.0467658015       10.9119030007  SOLV      8344            0.0000000000
     25147      8356  TIP3      OH2            40.3671784360        1.1186578949       11.4714479743  SOLV      8345            0.0000000000
     25148      8356  TIP3      H1             40.5903929556        1.1045014000       10.5125821759  SOLV      8345            0.0000000000
     25149      8356  TIP3      H2             40.8127434922        1.9434458230       11.7274730464  SOLV      8345            0.0000000000
     25150      8357  TIP3      OH2            40.9222407828        4.2677678484       16.8282494669  SOLV      8346            0.0000000000
     25151      8357  TIP3      H1             41.8551283585        4.4116361002       17.0549288045  SOLV      8346            0.0000000000
     25152      8357  TIP3      H2             40.4813241620        4.6230786540       17.6097593219  SOLV      8346            0.0000000000
     25153      8358  TIP3      OH2            41.2616236567        3.7829000876       11.7792055219  SOLV      8347            0.0000000000
     25154      8358  TIP3      H1             40.3299047794        4.0137397737       11.6343907869  SOLV      8347            0.0000000000
     25155      8358  TIP3      H2             41.6730759693        4.5993676133       11.4497844074  SOLV      8347            0.0000000000
     25156      8359  TIP3      OH2            38.7988275678        6.9639471307       12.4309011598  SOLV      8348            0.0000000000
     25157      8359  TIP3      H1             38.3173663268        6.2899781828       11.9052957227  SOLV      8348            0.0000000000
     25158      8359  TIP3      H2             39.4841222659        6.4147314853       12.8608358488  SOLV      8348            0.0000000000
     25159      8360  TIP3      OH2            40.2851627227        5.5545282957       14.3252583550  SOLV      8349            0.0000000000
     25160      8360  TIP3      H1             40.4712870920        4.9535806095       15.0724693847  SOLV      8349            0.0000000000
     25161      8360  TIP3      H2             41.0103035354        6.1878444614       14.3740646429  SOLV      8349            0.0000000000
     25162      8361  TIP3      OH2            39.8159090822        5.1558991312        9.7666839551  SOLV      8350            0.0000000000
     25163      8361  TIP3      H1             39.0039615495        4.7556111405        9.4102855816  SOLV      8350            0.0000000000
     25164      8361  TIP3      H2             39.7844059172        6.0106309506        9.2868386262  SOLV      8350            0.0000000000
     25165      8362  TIP3      OH2           -23.3657767140        8.4084685316       27.8906039777  SOLV      8351            0.0000000000
     25166      8362  TIP3      H1            -23.7166130272        9.2967401387       27.6675335040  SOLV      8351            0.0000000000
     25167      8362  TIP3      H2            -24.1465457243        7.8618896096       27.7025251905  SOLV      8351            0.0000000000
     25168      8363  TIP3      OH2           -23.3760988912        8.4361900711       31.6342909385  SOLV      8352            0.0000000000
     25169      8363  TIP3      H1            -23.1319162623        8.3142008408       32.5703484604  SOLV      8352            0.0000000000
     25170      8363  TIP3      H2            -23.8723127788        7.6240723500       31.4436796976  SOLV      8352            0.0000000000
     25171      8364  TIP3      OH2           -20.9646619185       11.4291567738       28.5572811143  SOLV      8353            0.0000000000
     25172      8364  TIP3      H1            -21.1447044763       10.7323362443       29.2023057788  SOLV      8353            0.0000000000
     25173      8364  TIP3      H2            -20.6484500109       12.1582507654       29.1174689276  SOLV      8353            0.0000000000
     25174      8365  TIP3      OH2           -24.4551458284       15.9975722316       28.7789505016  SOLV      8354            0.0000000000
     25175      8365  TIP3      H1            -24.0632206283       15.3302184058       28.1772619850  SOLV      8354            0.0000000000
     25176      8365  TIP3      H2            -24.4305588252       15.5219781412       29.6192446075  SOLV      8354            0.0000000000
     25177      8366  TIP3      OH2           -25.3537842756       10.6887099536       32.1176179206  SOLV      8355            0.0000000000
     25178      8366  TIP3      H1            -24.9880693911        9.8716808891       31.7480042536  SOLV      8355            0.0000000000
     25179      8366  TIP3      H2            -24.5233298757       11.1105244385       32.4132246965  SOLV      8355            0.0000000000
     25180      8367  TIP3      OH2           -15.1555275723        3.8563836292       32.0594848772  SOLV      8356            0.0000000000
     25181      8367  TIP3      H1            -14.9359504548        4.7071366880       32.4865167453  SOLV      8356            0.0000000000
     25182      8367  TIP3      H2            -14.9111445296        4.0367056495       31.1318358547  SOLV      8356            0.0000000000
     25183      8368  TIP3      OH2           -21.4015974999        5.5287491498       32.4807096505  SOLV      8357            0.0000000000
     25184      8368  TIP3      H1            -20.9624202337        4.6929750645       32.7447057327  SOLV      8357            0.0000000000
     25185      8368  TIP3      H2            -21.6369585553        5.3337701169       31.5522697886  SOLV      8357            0.0000000000
     25186      8369  TIP3      OH2           -27.6872235888        2.1459083014       32.1377238108  SOLV      8358            0.0000000000
     25187      8369  TIP3      H1            -28.0443921231        2.9744953087       31.7676123275  SOLV      8358            0.0000000000
     25188      8369  TIP3      H2            -28.3764723907        1.5157823286       31.8643105687  SOLV      8358            0.0000000000
     25189      8370  TIP3      OH2           -20.9433066400        3.1933862690       28.3321101666  SOLV      8359            0.0000000000
     25190      8370  TIP3      H1            -20.2603145865        3.0449858427       29.0274594593  SOLV      8359            0.0000000000
     25191      8370  TIP3      H2            -20.3771661080        3.4958446367       27.5974506333  SOLV      8359            0.0000000000
     25192      8371  TIP3      OH2           -27.0613548204        6.2435117967       31.0123175112  SOLV      8360            0.0000000000
     25193      8371  TIP3      H1            -26.1414179526        5.9585618311       31.1958400906  SOLV      8360            0.0000000000
     25194      8371  TIP3      H2            -27.5001749974        5.3907249124       30.8047415206  SOLV      8360            0.0000000000
     25195      8372  TIP3      OH2           -14.5668114781        5.9042127589       33.8901154275  SOLV      8361            0.0000000000
     25196      8372  TIP3      H1            -15.3846458105        6.4079881312       33.6810921661  SOLV      8361            0.0000000000
     25197      8372  TIP3      H2            -14.2680111798        6.3475611811       34.7143091882  SOLV      8361            0.0000000000
     25198      8373  TIP3      OH2           -24.6136337716       10.5659345278       26.5975423600  SOLV      8362            0.0000000000
     25199      8373  TIP3      H1            -25.0876477190       10.4643970832       25.7653193015  SOLV      8362            0.0000000000
     25200      8373  TIP3      H2            -25.0145492985       11.3949703031       26.9318172281  SOLV      8362            0.0000000000
     25201      8374  TIP3      OH2           -27.8076824397       10.1698002600       33.5714463877  SOLV      8363            0.0000000000
     25202      8374  TIP3      H1            -28.0303606685       10.7909429821       34.2792618458  SOLV      8363            0.0000000000
     25203      8374  TIP3      H2            -26.8459384952       10.2847542463       33.4827128173  SOLV      8363            0.0000000000
     25204      8375  TIP3      OH2           -18.9897073675        3.2405138838       30.2127604916  SOLV      8364            0.0000000000
     25205      8375  TIP3      H1            -18.6411963860        2.5811470075       30.8217273787  SOLV      8364            0.0000000000
     25206      8375  TIP3      H2            -18.4670147884        4.0354029082       30.4448841474  SOLV      8364            0.0000000000
     25207      8376  TIP3      OH2           -20.2856772026       13.8754050246       30.1677637695  SOLV      8365            0.0000000000
     25208      8376  TIP3      H1            -21.1814666985       13.7592054108       30.5614883029  SOLV      8365            0.0000000000
     25209      8376  TIP3      H2            -20.3916595827       14.7408265950       29.7255264452  SOLV      8365            0.0000000000
     25210      8377  TIP3      OH2           -17.2703028207        2.9264442626       33.5967840200  SOLV      8366            0.0000000000
     25211      8377  TIP3      H1            -18.1001053727        3.3262866524       33.2933812299  SOLV      8366            0.0000000000
     25212      8377  TIP3      H2            -16.6166591587        3.2490781878       32.9401163350  SOLV      8366            0.0000000000
     25213      8378  TIP3      OH2           -23.3518347017       14.3148913533       26.8673636330  SOLV      8367            0.0000000000
     25214      8378  TIP3      H1            -22.8540725909       13.4758861140       26.7153794225  SOLV      8367            0.0000000000
     25215      8378  TIP3      H2            -22.7019138950       14.9504585063       26.4884196754  SOLV      8367            0.0000000000
     25216      8379  TIP3      OH2           -21.8889026598       12.1531328999       26.0714236939  SOLV      8368            0.0000000000
     25217      8379  TIP3      H1            -22.0895082146       11.3287088677       25.6131752070  SOLV      8368            0.0000000000
     25218      8379  TIP3      H2            -21.5030266492       11.8208226346       26.9135461231  SOLV      8368            0.0000000000
     25219      8380  TIP3      OH2           -18.0546487687       12.9203557242       33.6457430485  SOLV      8369            0.0000000000
     25220      8380  TIP3      H1            -18.1609501256       12.1548987141       33.0389903729  SOLV      8369            0.0000000000
     25221      8380  TIP3      H2            -18.2490424283       13.6747440627       33.0509995670  SOLV      8369            0.0000000000
     25222      8381  TIP3      OH2           -25.0471152301        6.7705150554       26.3526832650  SOLV      8370            0.0000000000
     25223      8381  TIP3      H1            -25.8734527363        7.3006806073       26.1985021300  SOLV      8370            0.0000000000
     25224      8381  TIP3      H2            -24.6610660878        6.8044107572       25.4747677390  SOLV      8370            0.0000000000
     25225      8382  TIP3      OH2           -16.0337277251        9.4080740606       32.1327724842  SOLV      8371            0.0000000000
     25226      8382  TIP3      H1            -16.9077549203        9.8556938559       32.1898199164  SOLV      8371            0.0000000000
     25227      8382  TIP3      H2            -15.7897753708        9.6260359665       31.2056191415  SOLV      8371            0.0000000000
     25228      8383  TIP3      OH2           -21.6741925406        7.6655733062       25.8968390228  SOLV      8372            0.0000000000
     25229      8383  TIP3      H1            -22.1721005399        7.9015472877       26.7188871552  SOLV      8372            0.0000000000
     25230      8383  TIP3      H2            -20.8021163481        7.4045202958       26.2994087693  SOLV      8372            0.0000000000
     25231      8384  TIP3      OH2           -19.0844477681        8.3490719144       34.5791336542  SOLV      8373            0.0000000000
     25232      8384  TIP3      H1            -19.0908625957        8.9242951811       35.3705058397  SOLV      8373            0.0000000000
     25233      8384  TIP3      H2            -19.9277205884        8.5875631116       34.1606844566  SOLV      8373            0.0000000000
     25234      8385  TIP3      OH2           -29.1373944805        7.6351877026       29.9357039566  SOLV      8374            0.0000000000
     25235      8385  TIP3      H1            -29.4123776825        7.0624316649       29.1921998563  SOLV      8374            0.0000000000
     25236      8385  TIP3      H2            -28.3528057011        7.1584345512       30.2889731821  SOLV      8374            0.0000000000
     25237      8386  TIP3      OH2           -27.8748911993       12.1732079752       31.3921947632  SOLV      8375            0.0000000000
     25238      8386  TIP3      H1            -28.2362209011       11.6362429224       30.6679008183  SOLV      8375            0.0000000000
     25239      8386  TIP3      H2            -27.2132628064       11.5695830746       31.7799641872  SOLV      8375            0.0000000000
     25240      8387  TIP3      OH2           -27.8512380982        7.4131555734       33.4731457677  SOLV      8376            0.0000000000
     25241      8387  TIP3      H1            -27.3538777304        7.2050017464       32.6652387967  SOLV      8376            0.0000000000
     25242      8387  TIP3      H2            -27.7415673611        8.3834757593       33.5707687561  SOLV      8376            0.0000000000
     25243      8388  TIP3      OH2           -22.7051063258       13.7354370055       31.3466403949  SOLV      8377            0.0000000000
     25244      8388  TIP3      H1            -22.7760287075       14.5758441710       31.8424988719  SOLV      8377            0.0000000000
     25245      8388  TIP3      H2            -22.9008938436       13.0593134536       32.0231561029  SOLV      8377            0.0000000000
     25246      8389  TIP3      OH2           -23.4392962700        7.0463265378       24.0681945628  SOLV      8378            0.0000000000
     25247      8389  TIP3      H1            -22.9075584194        7.1706181927       24.7819559102  SOLV      8378            0.0000000000
     25248      8389  TIP3      H2            -22.8524056294        6.4178442148       23.5033390983  SOLV      8378            0.0000000000
     25249      8390  TIP3      OH2           -25.8181545866       13.0884257491       26.9522629232  SOLV      8379            0.0000000000
     25250      8390  TIP3      H1            -24.9635277624       13.5599554530       27.0122731627  SOLV      8379            0.0000000000
     25251      8390  TIP3      H2            -26.3740635492       13.7344952874       26.4980178782  SOLV      8379            0.0000000000
     25252      8391  TIP3      OH2           -18.0377614709       -1.3258879458       24.7046814824  SOLV      8380            0.0000000000
     25253      8391  TIP3      H1            -18.8949636501       -1.1187479905       25.1279790345  SOLV      8380            0.0000000000
     25254      8391  TIP3      H2            -17.8900844702       -0.5138292740       24.1724152809  SOLV      8380            0.0000000000
     25255      8392  TIP3      OH2           -30.2869774785        6.2933073226       27.7459753075  SOLV      8381            0.0000000000
     25256      8392  TIP3      H1            -30.9085642605        6.6271293885       27.0893124972  SOLV      8381            0.0000000000
     25257      8392  TIP3      H2            -30.8673512555        5.7142746470       28.2839037359  SOLV      8381            0.0000000000
     25258      8393  TIP3      OH2           -20.0309522782       12.3095649856       20.2554378376  SOLV      8382            0.0000000000
     25259      8393  TIP3      H1            -19.9488827348       13.2592491418       20.0221246682  SOLV      8382            0.0000000000
     25260      8393  TIP3      H2            -19.1095535978       12.0038700136       20.0974724954  SOLV      8382            0.0000000000
     25261      8394  TIP3      OH2           -15.5479564355       16.3281641616       34.1185402643  SOLV      8383            0.0000000000
     25262      8394  TIP3      H1            -15.5526877240       15.3782098177       34.3417340190  SOLV      8383            0.0000000000
     25263      8394  TIP3      H2            -16.4362640347       16.5808073685       34.4541909823  SOLV      8383            0.0000000000
     25264      8395  TIP3      OH2           -24.5724520065       14.4952296521       35.0615215541  SOLV      8384            0.0000000000
     25265      8395  TIP3      H1            -24.4062949459       15.4609880680       34.9705789890  SOLV      8384            0.0000000000
     25266      8395  TIP3      H2            -25.1493330045       14.4338890386       35.8355754128  SOLV      8384            0.0000000000
     25267      8396  TIP3      OH2           -26.9570866959       15.5686413087       24.9352457483  SOLV      8385            0.0000000000
     25268      8396  TIP3      H1            -27.4323166118       15.4197578698       24.0996379220  SOLV      8385            0.0000000000
     25269      8396  TIP3      H2            -27.0387950851       16.5344928161       25.0560258676  SOLV      8385            0.0000000000
     25270      8397  TIP3      OH2           -24.9603826506       14.5560096168       21.3480940295  SOLV      8386            0.0000000000
     25271      8397  TIP3      H1            -24.3551750173       13.8689957241       20.9928403880  SOLV      8386            0.0000000000
     25272      8397  TIP3      H2            -24.6246577313       14.6540816294       22.2650736612  SOLV      8386            0.0000000000
     25273      8398  TIP3      OH2           -24.4507683223       15.0105092927       24.0437618157  SOLV      8387            0.0000000000
     25274      8398  TIP3      H1            -25.3287324909       15.1115649738       24.4742271340  SOLV      8387            0.0000000000
     25275      8398  TIP3      H2            -23.9260365831       14.6421254836       24.7729540482  SOLV      8387            0.0000000000
     25276      8399  TIP3      OH2           -16.3985006738        7.8680463821       36.1287743993  SOLV      8388            0.0000000000
     25277      8399  TIP3      H1            -17.3415818755        7.9872061225       36.3294212226  SOLV      8388            0.0000000000
     25278      8399  TIP3      H2            -16.3753794494        6.8985751880       36.0122384193  SOLV      8388            0.0000000000
     25279      8400  TIP3      OH2           -22.7710585374        7.0692351776       21.3723525751  SOLV      8389            0.0000000000
     25280      8400  TIP3      H1            -22.9807245446        6.5070331616       20.6069611294  SOLV      8389            0.0000000000
     25281      8400  TIP3      H2            -21.8141602296        7.1383115500       21.2885803699  SOLV      8389            0.0000000000
     25282      8401  TIP3      OH2           -25.4463206805        0.5231067689       24.6367249640  SOLV      8390            0.0000000000
     25283      8401  TIP3      H1            -25.8161347430        0.3921676010       25.5299037827  SOLV      8390            0.0000000000
     25284      8401  TIP3      H2            -25.6843808089       -0.3332167831       24.2305312628  SOLV      8390            0.0000000000
     25285      8402  TIP3      OH2           -28.5482691208        4.0500776246       30.2598837233  SOLV      8391            0.0000000000
     25286      8402  TIP3      H1            -29.4946062174        3.8143784565       30.3500806295  SOLV      8391            0.0000000000
     25287      8402  TIP3      H2            -28.3776455487        3.6564608610       29.3787533016  SOLV      8391            0.0000000000
     25288      8403  TIP3      OH2           -23.6809216682        4.8066631269       27.6162570413  SOLV      8392            0.0000000000
     25289      8403  TIP3      H1            -24.2146482757        5.5175047954       27.2018773016  SOLV      8392            0.0000000000
     25290      8403  TIP3      H2            -23.1102465220        4.5410749373       26.8649614587  SOLV      8392            0.0000000000
     25291      8404  TIP3      OH2           -22.1932038636        5.1302229647       29.9004976567  SOLV      8393            0.0000000000
     25292      8404  TIP3      H1            -22.8093112773        5.3848235691       29.1813125115  SOLV      8393            0.0000000000
     25293      8404  TIP3      H2            -21.8060573088        4.3467387352       29.4516008517  SOLV      8393            0.0000000000
     25294      8405  TIP3      OH2           -28.7740058943        0.2730469730       24.3131866173  SOLV      8394            0.0000000000
     25295      8405  TIP3      H1            -28.8857269632        0.2375137388       25.2806197488  SOLV      8394            0.0000000000
     25296      8405  TIP3      H2            -29.5742253807        0.7673130070       24.0467367171  SOLV      8394            0.0000000000
     25297      8406  TIP3      OH2           -21.8321829829        7.7550637927       33.9273448127  SOLV      8395            0.0000000000
     25298      8406  TIP3      H1            -21.6691038098        7.0335376025       33.2790087829  SOLV      8395            0.0000000000
     25299      8406  TIP3      H2            -21.4334314424        7.3379027982       34.7168365190  SOLV      8395            0.0000000000
     25300      8407  TIP3      OH2           -25.2901410505        2.1870297743       30.7696296833  SOLV      8396            0.0000000000
     25301      8407  TIP3      H1            -26.1041244952        2.2432965378       31.3183775386  SOLV      8396            0.0000000000
     25302      8407  TIP3      H2            -24.5830702895        2.2094216838       31.4364972079  SOLV      8396            0.0000000000
     25303      8408  TIP3      OH2           -30.9617378374        2.7532114625       30.3711115489  SOLV      8397            0.0000000000
     25304      8408  TIP3      H1            -31.8438036073        2.4331698060       30.6001397052  SOLV      8397            0.0000000000
     25305      8408  TIP3      H2            -30.4561318527        1.9190152924       30.3863132190  SOLV      8397            0.0000000000
     25306      8409  TIP3      OH2           -28.4011499653        2.6937019644       27.8530195264  SOLV      8398            0.0000000000
     25307      8409  TIP3      H1            -27.4627524482        2.8660435225       27.6364516463  SOLV      8398            0.0000000000
     25308      8409  TIP3      H2            -28.8813742868        2.9848572601       27.0435369129  SOLV      8398            0.0000000000
     25309      8410  TIP3      OH2           -20.5682252377        2.9913821042       33.0914477414  SOLV      8399            0.0000000000
     25310      8410  TIP3      H1            -21.2353739709        2.7626146426       33.7666514047  SOLV      8399            0.0000000000
     25311      8410  TIP3      H2            -20.8607557777        2.4325411857       32.3564527586  SOLV      8399            0.0000000000
     25312      8411  TIP3      OH2           -29.8967505963        3.1088891622       25.5750325737  SOLV      8400            0.0000000000
     25313      8411  TIP3      H1            -30.4970122364        2.5995032188       24.9967422213  SOLV      8400            0.0000000000
     25314      8411  TIP3      H2            -29.3459619565        3.5430103798       24.8915650412  SOLV      8400            0.0000000000
     25315      8412  TIP3      OH2           -24.4624588671        5.5869504661       31.6636219432  SOLV      8401            0.0000000000
     25316      8412  TIP3      H1            -23.7596615655        5.2756392068       31.0680583657  SOLV      8401            0.0000000000
     25317      8412  TIP3      H2            -24.1306564469        5.3177827608       32.5287048928  SOLV      8401            0.0000000000
     25318      8413  TIP3      OH2           -29.3182865716        0.4229334638       30.5740403610  SOLV      8402            0.0000000000
     25319      8413  TIP3      H1            -29.1658852473       -0.5190237318       30.7156378194  SOLV      8402            0.0000000000
     25320      8413  TIP3      H2            -28.8996175460        0.5597387627       29.7113725380  SOLV      8402            0.0000000000
     25321      8414  TIP3      OH2           -27.2111096484        8.2382903429       25.5773744610  SOLV      8403            0.0000000000
     25322      8414  TIP3      H1            -28.0061112161        7.7007174929       25.3835050888  SOLV      8403            0.0000000000
     25323      8414  TIP3      H2            -27.4474091388        8.6238311920       26.4576997702  SOLV      8403            0.0000000000
     25324      8415  TIP3      OH2           -18.4289666458       10.7870472594       31.9444880468  SOLV      8404            0.0000000000
     25325      8415  TIP3      H1            -18.1964046198       11.3014348097       31.1432639085  SOLV      8404            0.0000000000
     25326      8415  TIP3      H2            -19.2611085722       10.3423851800       31.6727826147  SOLV      8404            0.0000000000
     25327      8416  TIP3      OH2           -22.9050605563        1.5007510434       24.5487997329  SOLV      8405            0.0000000000
     25328      8416  TIP3      H1            -23.8518220983        1.2384444835       24.4657244780  SOLV      8405            0.0000000000
     25329      8416  TIP3      H2            -22.9479737799        2.4673718746       24.5325031564  SOLV      8405            0.0000000000
     25330      8417  TIP3      OH2           -22.1234129507        4.2543588699       25.3601853042  SOLV      8406            0.0000000000
     25331      8417  TIP3      H1            -21.2037891993        4.0717517685       25.6405965113  SOLV      8406            0.0000000000
     25332      8417  TIP3      H2            -21.9787454163        4.5687626117       24.4619469035  SOLV      8406            0.0000000000
     25333      8418  TIP3      OH2           -30.3264381915        7.9155115934       32.4892339238  SOLV      8407            0.0000000000
     25334      8418  TIP3      H1            -29.9610845992        7.9396761657       31.5794655383  SOLV      8407            0.0000000000
     25335      8418  TIP3      H2            -29.4927833601        7.7960500993       33.0028856675  SOLV      8407            0.0000000000
     25336      8419  TIP3      OH2           -25.7961525846        9.6208575112       23.6673921408  SOLV      8408            0.0000000000
     25337      8419  TIP3      H1            -26.2739801143       10.4833610125       23.6318065857  SOLV      8408            0.0000000000
     25338      8419  TIP3      H2            -26.3778255660        9.1443809946       24.3017975484  SOLV      8408            0.0000000000
     25339      8420  TIP3      OH2           -21.9265597216       14.0707927769       34.5635339293  SOLV      8409            0.0000000000
     25340      8420  TIP3      H1            -22.9011282009       14.0533328635       34.6707192593  SOLV      8409            0.0000000000
     25341      8420  TIP3      H2            -21.7097267079       14.9005279777       35.0201758435  SOLV      8409            0.0000000000
     25342      8421  TIP3      OH2           -17.7491975063        4.9764946596       23.7015012872  SOLV      8410            0.0000000000
     25343      8421  TIP3      H1            -18.5100841899        4.5340656277       23.2603760820  SOLV      8410            0.0000000000
     25344      8421  TIP3      H2            -17.6504074073        5.7028855173       23.0407852081  SOLV      8410            0.0000000000
     25345      8422  TIP3      OH2           -15.4772066646       13.4055759577       34.4244277481  SOLV      8411            0.0000000000
     25346      8422  TIP3      H1            -16.4570964057       13.4497289092       34.3681107944  SOLV      8411            0.0000000000
     25347      8422  TIP3      H2            -15.2617617849       13.1351007421       33.5026081634  SOLV      8411            0.0000000000
     25348      8423  TIP3      OH2           -20.8289266862       13.1063459954       22.7979835055  SOLV      8412            0.0000000000
     25349      8423  TIP3      H1            -20.7823308702       12.3773077104       23.4294660086  SOLV      8412            0.0000000000
     25350      8423  TIP3      H2            -20.5506395169       12.6913265722       21.9577984316  SOLV      8412            0.0000000000
     25351      8424  TIP3      OH2           -20.7842116341        9.4494423790       31.0795959129  SOLV      8413            0.0000000000
     25352      8424  TIP3      H1            -21.7171734112        9.1697170699       31.1872917322  SOLV      8413            0.0000000000
     25353      8424  TIP3      H2            -20.4198373496        8.6474134731       30.6539885263  SOLV      8413            0.0000000000
     25354      8425  TIP3      OH2           -28.9939954426       11.5109539897       28.8043838015  SOLV      8414            0.0000000000
     25355      8425  TIP3      H1            -28.6326367589       12.2969601990       28.3777521554  SOLV      8414            0.0000000000
     25356      8425  TIP3      H2            -29.9332775445       11.5583818514       28.5438487610  SOLV      8414            0.0000000000
     25357      8426  TIP3      OH2           -27.9074230412        9.1515636338       27.9873368224  SOLV      8415            0.0000000000
     25358      8426  TIP3      H1            -28.0805511555       10.0606054348       28.3056459303  SOLV      8415            0.0000000000
     25359      8426  TIP3      H2            -28.2748107395        8.6474486027       28.7376276451  SOLV      8415            0.0000000000
     25360      8427  TIP3      OH2           -26.5274485809       15.0570090446       33.1185280161  SOLV      8416            0.0000000000
     25361      8427  TIP3      H1            -25.9397629627       15.7244946175       32.7144635609  SOLV      8416            0.0000000000
     25362      8427  TIP3      H2            -25.8818597954       14.4849100407       33.5723605312  SOLV      8416            0.0000000000
     25363      8428  TIP3      OH2           -22.8062930944       11.4226435562       32.9691232914  SOLV      8417            0.0000000000
     25364      8428  TIP3      H1            -22.5512841618       11.4092589534       33.9009698231  SOLV      8417            0.0000000000
     25365      8428  TIP3      H2            -22.1133625713       10.8798302018       32.5675060603  SOLV      8417            0.0000000000
     25366      8429  TIP3      OH2           -23.5066835753        9.8562954713       22.1683624868  SOLV      8418            0.0000000000
     25367      8429  TIP3      H1            -22.7211068395        9.9887163283       22.7516819360  SOLV      8418            0.0000000000
     25368      8429  TIP3      H2            -24.1591055433       10.4353001618       22.6063041730  SOLV      8418            0.0000000000
     25369      8430  TIP3      OH2           -20.4477817339       16.7613581854       33.4259732261  SOLV      8419            0.0000000000
     25370      8430  TIP3      H1            -21.3678349738       16.4261600485       33.4252229708  SOLV      8419            0.0000000000
     25371      8430  TIP3      H2            -20.5322924501       17.4054381689       32.6889585348  SOLV      8419            0.0000000000
     25372      8431  TIP3      OH2           -19.7717924746       15.0949272705       19.9862513320  SOLV      8420            0.0000000000
     25373      8431  TIP3      H1            -19.3902662963       15.8318888572       19.4816220689  SOLV      8420            0.0000000000
     25374      8431  TIP3      H2            -20.5758167254       15.5388375324       20.3265878307  SOLV      8420            0.0000000000
     25375      8432  TIP3      OH2           -21.5965965831        9.7230874903       24.0244405579  SOLV      8421            0.0000000000
     25376      8432  TIP3      H1            -21.6340259701        9.0468445868       24.7271003642  SOLV      8421            0.0000000000
     25377      8432  TIP3      H2            -20.6122853175        9.7787816819       23.9187867410  SOLV      8421            0.0000000000
     25378      8433  TIP3      OH2           -29.3169041317       10.0615672832       21.6639143114  SOLV      8422            0.0000000000
     25379      8433  TIP3      H1            -29.2927374213        9.1147465423       21.4287519623  SOLV      8422            0.0000000000
     25380      8433  TIP3      H2            -29.3158799229       10.0027201030       22.6489899998  SOLV      8422            0.0000000000
     25381      8434  TIP3      OH2           -29.4844198701        9.9930283049       24.3553204497  SOLV      8423            0.0000000000
     25382      8434  TIP3      H1            -29.3927431057        9.5913827395       25.2224255628  SOLV      8423            0.0000000000
     25383      8434  TIP3      H2            -30.2027891671       10.6383347005       24.5208376704  SOLV      8423            0.0000000000
     25384      8435  TIP3      OH2           -22.4843950307        1.0396416556       27.2559908327  SOLV      8424            0.0000000000
     25385      8435  TIP3      H1            -22.5957987371        1.1930741969       26.2924482283  SOLV      8424            0.0000000000
     25386      8435  TIP3      H2            -22.0359398558        1.8605172349       27.5423174275  SOLV      8424            0.0000000000
     25387      8436  TIP3      OH2           -27.0374947806       12.0572084134       23.8385571058  SOLV      8425            0.0000000000
     25388      8436  TIP3      H1            -27.9042405097       12.0030736642       24.2906035406  SOLV      8425            0.0000000000
     25389      8436  TIP3      H2            -27.1201995898       12.9412136171       23.4510344108  SOLV      8425            0.0000000000
     25390      8437  TIP3      OH2           -25.6075135259        2.9014855740       28.1486588615  SOLV      8426            0.0000000000
     25391      8437  TIP3      H1            -24.9110558393        3.5739142284       27.9882369266  SOLV      8426            0.0000000000
     25392      8437  TIP3      H2            -25.4986034898        2.7521608468       29.1139865995  SOLV      8426            0.0000000000
     25393      8438  TIP3      OH2           -24.1404174428        0.0009095378       29.1698290781  SOLV      8427            0.0000000000
     25394      8438  TIP3      H1            -24.2105856540        0.7912296540       29.7377191545  SOLV      8427            0.0000000000
     25395      8438  TIP3      H2            -23.5149352718        0.3403027266       28.4829302911  SOLV      8427            0.0000000000
     25396      8439  TIP3      OH2           -29.5883555440       12.8977323535       24.6455911761  SOLV      8428            0.0000000000
     25397      8439  TIP3      H1            -30.1276428328       13.0950497052       23.8647554600  SOLV      8428            0.0000000000
     25398      8439  TIP3      H2            -29.9564285836       13.5067741658       25.3004289487  SOLV      8428            0.0000000000
     25399      8440  TIP3      OH2           -28.9886572274        0.1008057593       27.0912468315  SOLV      8429            0.0000000000
     25400      8440  TIP3      H1            -28.9434330996        1.0366913456       27.3762807814  SOLV      8429            0.0000000000
     25401      8440  TIP3      H2            -28.0334333016       -0.1216333918       27.1308365093  SOLV      8429            0.0000000000
     25402      8441  TIP3      OH2           -16.6036198261        5.1246067325       35.9212465265  SOLV      8430            0.0000000000
     25403      8441  TIP3      H1            -17.4826346135        4.7594471648       35.6920443840  SOLV      8430            0.0000000000
     25404      8441  TIP3      H2            -16.1107208659        4.9903826448       35.0994271371  SOLV      8430            0.0000000000
     25405      8442  TIP3      OH2           -19.9128966564        6.9681542824       29.9443170756  SOLV      8431            0.0000000000
     25406      8442  TIP3      H1            -20.6832403809        6.3826197223       30.0483927644  SOLV      8431            0.0000000000
     25407      8442  TIP3      H2            -19.2081898483        6.4716620686       30.4124560305  SOLV      8431            0.0000000000
     25408      8443  TIP3      OH2           -20.2165975338       16.5966649534       29.4102670084  SOLV      8432            0.0000000000
     25409      8443  TIP3      H1            -20.6543955432       17.0783972601       28.6721831268  SOLV      8432            0.0000000000
     25410      8443  TIP3      H2            -19.2753663908       16.7850496219       29.1934739732  SOLV      8432            0.0000000000
     25411      8444  TIP3      OH2           -27.7937402830       12.2241235520       20.8790037001  SOLV      8433            0.0000000000
     25412      8444  TIP3      H1            -28.3785500642       11.5144210801       21.2368341861  SOLV      8433            0.0000000000
     25413      8444  TIP3      H2            -27.0307423218       11.6963197033       20.5705746114  SOLV      8433            0.0000000000
     25414      8445  TIP3      OH2           -21.6109926390       15.9704910215       36.6153563843  SOLV      8434            0.0000000000
     25415      8445  TIP3      H1            -21.3652709729       15.1231304905       37.0553676380  SOLV      8434            0.0000000000
     25416      8445  TIP3      H2            -20.7082884173       16.3603510754       36.6525421688  SOLV      8434            0.0000000000
     25417      8446  TIP3      OH2           -23.5195113147       12.6125590462       19.9976863532  SOLV      8435            0.0000000000
     25418      8446  TIP3      H1            -22.9728712520       11.9566912475       20.4552556280  SOLV      8435            0.0000000000
     25419      8446  TIP3      H2            -23.0538074662       12.6086012164       19.1329596671  SOLV      8435            0.0000000000
     25420      8447  TIP3      OH2           -31.1334306731        7.4623676814       23.0322657105  SOLV      8436            0.0000000000
     25421      8447  TIP3      H1            -30.7527816962        7.2188532166       23.8923941480  SOLV      8436            0.0000000000
     25422      8447  TIP3      H2            -30.3690311835        7.3017639273       22.4491823537  SOLV      8436            0.0000000000
     25423      8448  TIP3      OH2           -20.3145163382       11.9452409564       34.9950679788  SOLV      8437            0.0000000000
     25424      8448  TIP3      H1            -19.4936080633       12.2455143591       34.5574953911  SOLV      8437            0.0000000000
     25425      8448  TIP3      H2            -20.8764098284       12.7412984595       34.8497847955  SOLV      8437            0.0000000000
     25426      8449  TIP3      OH2           -29.3394759776        6.4943634337       25.1529419371  SOLV      8438            0.0000000000
     25427      8449  TIP3      H1            -29.4412222169        6.1862328288       26.0736145316  SOLV      8438            0.0000000000
     25428      8449  TIP3      H2            -28.9704659543        5.6997012918       24.7141391849  SOLV      8438            0.0000000000
     25429      8450  TIP3      OH2           -28.3461123180        4.2845478884       23.7077204070  SOLV      8439            0.0000000000
     25430      8450  TIP3      H1            -28.6427205264        4.4375617539       22.7820001560  SOLV      8439            0.0000000000
     25431      8450  TIP3      H2            -27.5179191185        3.8076030014       23.5491377665  SOLV      8439            0.0000000000
     25432      8451  TIP3      OH2           -18.9413874440       10.2391264887       36.5877606732  SOLV      8440            0.0000000000
     25433      8451  TIP3      H1            -19.4758610637       10.8865221854       36.0798361749  SOLV      8440            0.0000000000
     25434      8451  TIP3      H2            -18.0324574380       10.5274551970       36.3508010197  SOLV      8440            0.0000000000
     25435      8452  TIP3      OH2           -30.0563364100       15.3666979086       23.1600102251  SOLV      8441            0.0000000000
     25436      8452  TIP3      H1            -29.2315814723       14.9390595407       22.8369754024  SOLV      8441            0.0000000000
     25437      8452  TIP3      H2            -30.3788623812       15.7683522103       22.3295984584  SOLV      8441            0.0000000000
     25438      8453  TIP3      OH2           -17.6635481595       17.4632625251       29.0134833423  SOLV      8442            0.0000000000
     25439      8453  TIP3      H1            -17.3951054137       17.7660967177       29.8993544190  SOLV      8442            0.0000000000
     25440      8453  TIP3      H2            -16.9527250691       17.7982016740       28.4448066024  SOLV      8442            0.0000000000
     25441      8454  TIP3      OH2           -17.4017437529       17.6125550354       31.8174900984  SOLV      8443            0.0000000000
     25442      8454  TIP3      H1            -17.8562008038       16.7418853317       31.8028805136  SOLV      8443            0.0000000000
     25443      8454  TIP3      H2            -16.5901316960       17.3658284169       32.2845618149  SOLV      8443            0.0000000000
     25444      8455  TIP3      OH2           -16.7236768267       14.8398004094       36.7378538561  SOLV      8444            0.0000000000
     25445      8455  TIP3      H1            -17.4259703377       14.5037903928       37.3137147235  SOLV      8444            0.0000000000
     25446      8455  TIP3      H2            -16.1819771646       15.3588896495       37.3614469399  SOLV      8444            0.0000000000
     25447      8456  TIP3      OH2           -18.9100866058        9.7777095725       23.9078053246  SOLV      8445            0.0000000000
     25448      8456  TIP3      H1            -18.1897534418       10.1978472198       23.3977453749  SOLV      8445            0.0000000000
     25449      8456  TIP3      H2            -18.3955397262        9.1644676649       24.4686435441  SOLV      8445            0.0000000000
     25450      8457  TIP3      OH2           -17.4764835696        8.1647578953       25.7489373124  SOLV      8446            0.0000000000
     25451      8457  TIP3      H1            -18.1784761207        7.7706984973       26.3083709753  SOLV      8446            0.0000000000
     25452      8457  TIP3      H2            -16.8945684917        8.5896619280       26.4053927204  SOLV      8446            0.0000000000
     25453      8458  TIP3      OH2           -16.8897553300       12.1715953155       30.0930624551  SOLV      8447            0.0000000000
     25454      8458  TIP3      H1            -16.3988378755       11.4620003534       29.6325866619  SOLV      8447            0.0000000000
     25455      8458  TIP3      H2            -16.9201085918       12.8770066196       29.4166938499  SOLV      8447            0.0000000000
     25456      8459  TIP3      OH2           -18.6657144675       15.1281592368       32.0395605602  SOLV      8448            0.0000000000
     25457      8459  TIP3      H1            -19.4333047284       15.5276311841       32.4946735419  SOLV      8448            0.0000000000
     25458      8459  TIP3      H2            -19.1037450274       14.6600810890       31.2947359072  SOLV      8448            0.0000000000
     25459      8460  TIP3      OH2           -19.7526257898        4.0166214902       22.1292806236  SOLV      8449            0.0000000000
     25460      8460  TIP3      H1            -19.3337820000        4.5905915013       21.4530967005  SOLV      8449            0.0000000000
     25461      8460  TIP3      H2            -19.8665771091        3.1719588649       21.6497397980  SOLV      8449            0.0000000000
     25462      8461  TIP3      OH2           -19.3969490069        6.8208733495       27.2254779837  SOLV      8450            0.0000000000
     25463      8461  TIP3      H1            -19.3038197975        5.8601721484       27.1181946493  SOLV      8450            0.0000000000
     25464      8461  TIP3      H2            -19.5334305793        6.9164196368       28.1941509983  SOLV      8450            0.0000000000
     25465      8462  TIP3      OH2           -16.4523710124       11.0766693466       35.7612368377  SOLV      8451            0.0000000000
     25466      8462  TIP3      H1            -15.6590670515       10.5113052543       35.7498634345  SOLV      8451            0.0000000000
     25467      8462  TIP3      H2            -16.2152901432       11.7676956566       35.1221398742  SOLV      8451            0.0000000000
     25468      8463  TIP3      OH2           -14.2320514868        9.3756970087       35.9803551014  SOLV      8452            0.0000000000
     25469      8463  TIP3      H1            -15.0906225917        8.9108994455       36.1342170557  SOLV      8452            0.0000000000
     25470      8463  TIP3      H2            -13.6501216273        8.5987172924       36.0662739639  SOLV      8452            0.0000000000
     25471      8464  TIP3      OH2           -19.9188246665        1.2354940348       21.4293968351  SOLV      8453            0.0000000000
     25472      8464  TIP3      H1            -19.3108086750        1.0057525327       22.1509569876  SOLV      8453            0.0000000000
     25473      8464  TIP3      H2            -20.7177848187        0.7060503762       21.6559781337  SOLV      8453            0.0000000000
     25474      8465  TIP3      OH2           -19.3849904195        3.9579832544       26.1407128875  SOLV      8454            0.0000000000
     25475      8465  TIP3      H1            -18.9771206110        3.0670127999       26.2748093644  SOLV      8454            0.0000000000
     25476      8465  TIP3      H2            -18.8172533386        4.2897949674       25.4218828660  SOLV      8454            0.0000000000
     25477      8466  TIP3      OH2           -17.7764932194        5.5925358677       31.1099045731  SOLV      8455            0.0000000000
     25478      8466  TIP3      H1            -16.9214975883        5.8348284428       30.6876497573  SOLV      8455            0.0000000000
     25479      8466  TIP3      H2            -17.6374341290        6.0273330184       31.9771092913  SOLV      8455            0.0000000000
     25480      8467  TIP3      OH2           -17.0052022789        7.0823383450       33.2996983107  SOLV      8456            0.0000000000
     25481      8467  TIP3      H1            -17.7525031559        7.4433483657       33.8340212106  SOLV      8456            0.0000000000
     25482      8467  TIP3      H2            -16.6658987152        7.9154042927       32.9115769468  SOLV      8456            0.0000000000
     25483      8468  TIP3      OH2           -18.3198725096        1.4720805349       26.5915287976  SOLV      8457            0.0000000000
     25484      8468  TIP3      H1            -17.8300410735        1.2676816022       27.4120142947  SOLV      8457            0.0000000000
     25485      8468  TIP3      H2            -18.9256312442        0.7012814890       26.5444220298  SOLV      8457            0.0000000000
     25486      8469  TIP3      OH2           -17.4661737728        0.7606793185       22.9961898467  SOLV      8458            0.0000000000
     25487      8469  TIP3      H1            -17.1173266989        0.1099506952       22.3453428214  SOLV      8458            0.0000000000
     25488      8469  TIP3      H2            -16.8516735029        1.5080541590       22.8761996012  SOLV      8458            0.0000000000
     25489      8470  TIP3      OH2           -21.8659464411       16.1589208013       25.5472168350  SOLV      8459            0.0000000000
     25490      8470  TIP3      H1            -21.3476517140       16.0427318338       24.7222306319  SOLV      8459            0.0000000000
     25491      8470  TIP3      H2            -21.3018853945       16.7662152232       26.0488422919  SOLV      8459            0.0000000000
     25492      8471  TIP3      OH2           -14.7045295148        2.0657976227       35.5249768421  SOLV      8460            0.0000000000
     25493      8471  TIP3      H1            -15.5767919006        2.4745157646       35.4358026255  SOLV      8460            0.0000000000
     25494      8471  TIP3      H2            -14.9264192815        1.1382941561       35.6788473618  SOLV      8460            0.0000000000
     25495      8472  TIP3      OH2           -25.3942600855       17.2442883507       31.8709879911  SOLV      8461            0.0000000000
     25496      8472  TIP3      H1            -26.1712033106       17.1712489364       31.2690243138  SOLV      8461            0.0000000000
     25497      8472  TIP3      H2            -25.6345714919       18.0078623778       32.4082831958  SOLV      8461            0.0000000000
     25498      8473  TIP3      OH2           -22.8311007778       16.3728096706       32.0904923152  SOLV      8462            0.0000000000
     25499      8473  TIP3      H1            -23.7636705013       16.6774141891       32.0938951915  SOLV      8462            0.0000000000
     25500      8473  TIP3      H2            -22.3900012541       17.1277818425       31.6697153434  SOLV      8462            0.0000000000
     25501      8474  TIP3      OH2           -20.9335456087       18.4014604817       31.3507713737  SOLV      8463            0.0000000000
     25502      8474  TIP3      H1            -21.0654217403       19.2495798077       30.8655348450  SOLV      8463            0.0000000000
     25503      8474  TIP3      H2            -20.6531641741       17.8105429155       30.6158773275  SOLV      8463            0.0000000000
     25504      8475  TIP3      OH2           -28.6087394456       14.7064503520       31.4130173791  SOLV      8464            0.0000000000
     25505      8475  TIP3      H1            -28.4394062494       13.7504429731       31.2442389389  SOLV      8464            0.0000000000
     25506      8475  TIP3      H2            -27.8539417997       14.8671345220       32.0218189480  SOLV      8464            0.0000000000
     25507      8476  TIP3      OH2           -22.7567874927        1.3609016206       31.9306358176  SOLV      8465            0.0000000000
     25508      8476  TIP3      H1            -23.0116078377        0.7452338179       32.6392861124  SOLV      8465            0.0000000000
     25509      8476  TIP3      H2            -22.0351300392        0.8798080729       31.4806714873  SOLV      8465            0.0000000000
     25510      8477  TIP3      OH2           -17.6199928545        0.1614168032       31.2087606987  SOLV      8466            0.0000000000
     25511      8477  TIP3      H1            -17.2704679464        0.5471689738       30.3750732942  SOLV      8466            0.0000000000
     25512      8477  TIP3      H2            -18.5814804790        0.1538144754       31.0432489092  SOLV      8466            0.0000000000
     25513      8478  TIP3      OH2           -16.6741814074        0.9565455975       28.7798595697  SOLV      8467            0.0000000000
     25514      8478  TIP3      H1            -15.9512529959        0.4362220640       28.3643226843  SOLV      8467            0.0000000000
     25515      8478  TIP3      H2            -16.3290250262        1.8663176769       28.6127017227  SOLV      8467            0.0000000000
     25516      8479  TIP3      OH2           -32.2056827943       -2.7605979460       28.8799881562  SOLV      8468            0.0000000000
     25517      8479  TIP3      H1            -31.9074139369       -2.3432545961       28.0494712271  SOLV      8468            0.0000000000
     25518      8479  TIP3      H2            -33.1585879719       -2.6220101458       28.8719535991  SOLV      8468            0.0000000000
     25519      8480  TIP3      OH2           -25.8875952918       -1.4104856969       31.0697058265  SOLV      8469            0.0000000000
     25520      8480  TIP3      H1            -25.3544756722       -1.0250935137       30.3514980883  SOLV      8469            0.0000000000
     25521      8480  TIP3      H2            -25.9628680023       -0.6725683189       31.6855609212  SOLV      8469            0.0000000000
     25522      8481  TIP3      OH2           -20.4464438655        0.0974430174       30.8102799436  SOLV      8470            0.0000000000
     25523      8481  TIP3      H1            -20.4193465900       -0.2996519712       29.9280384953  SOLV      8470            0.0000000000
     25524      8481  TIP3      H2            -20.6638160335       -0.6906044444       31.3641129654  SOLV      8470            0.0000000000
     25525      8482  TIP3      OH2           -20.0994165814       -0.6821289661       26.5179029315  SOLV      8471            0.0000000000
     25526      8482  TIP3      H1            -21.0144115973       -0.3635610490       26.4686521588  SOLV      8471            0.0000000000
     25527      8482  TIP3      H2            -20.2336312707       -1.5420746696       26.9737312011  SOLV      8471            0.0000000000
     25528      8483  TIP3      OH2           -31.2942290672       -1.4893296101       26.3913424892  SOLV      8472            0.0000000000
     25529      8483  TIP3      H1            -30.8470309666       -2.1277758505       25.7942490327  SOLV      8472            0.0000000000
     25530      8483  TIP3      H2            -30.5302912072       -0.9504037406       26.6853490493  SOLV      8472            0.0000000000
     25531      8484  TIP3      OH2           -26.2262302844        0.3571594103       27.3187964176  SOLV      8473            0.0000000000
     25532      8484  TIP3      H1            -25.5645202620       -0.1304965560       27.8374597346  SOLV      8473            0.0000000000
     25533      8484  TIP3      H2            -25.9665049681        1.2775380335       27.5413490201  SOLV      8473            0.0000000000
     25534      8485  TIP3      OH2           -27.5866731502       14.5569404723       22.2460868201  SOLV      8474            0.0000000000
     25535      8485  TIP3      H1            -26.6936682416       14.7778475529       21.9106208681  SOLV      8474            0.0000000000
     25536      8485  TIP3      H2            -27.7659557556       13.7636876353       21.6894420835  SOLV      8474            0.0000000000
     25537      8486  TIP3      OH2           -20.3958044029       15.7661617959       23.2492468415  SOLV      8475            0.0000000000
     25538      8486  TIP3      H1            -20.5127848853       14.7909077557       23.1562478563  SOLV      8475            0.0000000000
     25539      8486  TIP3      H2            -20.8256906578       16.0729016588       22.4247767289  SOLV      8475            0.0000000000
     25540      8487  TIP3      OH2           -18.0552232623       17.3026911174       34.6846323073  SOLV      8476            0.0000000000
     25541      8487  TIP3      H1            -18.8914300026       16.9689548206       34.2896537398  SOLV      8476            0.0000000000
     25542      8487  TIP3      H2            -18.0480441893       18.2056086917       34.3458350005  SOLV      8476            0.0000000000
     25543      8488  TIP3      OH2            -5.4446214687       10.9679323243       22.7202006968  SOLV      8477            0.0000000000
     25544      8488  TIP3      H1             -5.7805553553       11.8600034184       22.4908346838  SOLV      8477            0.0000000000
     25545      8488  TIP3      H2             -6.1787246477       10.4238528317       22.3796521547  SOLV      8477            0.0000000000
     25546      8489  TIP3      OH2            -5.4088625827       10.9583527072       26.6148308940  SOLV      8478            0.0000000000
     25547      8489  TIP3      H1             -5.0867231681       10.6881904780       27.4940094201  SOLV      8478            0.0000000000
     25548      8489  TIP3      H2             -5.8510024472       10.1511480362       26.3071353684  SOLV      8478            0.0000000000
     25549      8490  TIP3      OH2           -12.5006078444        9.8746839557       30.2392298436  SOLV      8479            0.0000000000
     25550      8490  TIP3      H1            -12.1983298653        9.1718184848       30.8436975205  SOLV      8479            0.0000000000
     25551      8490  TIP3      H2            -11.6738496319       10.3532168587       30.0822803820  SOLV      8479            0.0000000000
     25552      8491  TIP3      OH2            -2.9421379078       13.9629083476       23.4199510974  SOLV      8480            0.0000000000
     25553      8491  TIP3      H1             -3.2251455553       13.3189118243       24.0819127111  SOLV      8480            0.0000000000
     25554      8491  TIP3      H2             -2.6917518364       14.7296526740       23.9627157289  SOLV      8480            0.0000000000
     25555      8492  TIP3      OH2           -12.7251206462       14.0247580864       27.4647693652  SOLV      8481            0.0000000000
     25556      8492  TIP3      H1            -12.8025509633       13.0447995258       27.4589413687  SOLV      8481            0.0000000000
     25557      8492  TIP3      H2            -11.7610442963       14.1158861420       27.3513282891  SOLV      8481            0.0000000000
     25558      8493  TIP3      OH2           -15.7017858065        5.9621533542       25.2558891971  SOLV      8482            0.0000000000
     25559      8493  TIP3      H1            -16.1948491403        6.7830543203       25.4361825033  SOLV      8482            0.0000000000
     25560      8493  TIP3      H2            -16.3858541174        5.4796099819       24.7509868717  SOLV      8482            0.0000000000
     25561      8494  TIP3      OH2           -15.1177252573        8.9018631793       27.1203424333  SOLV      8483            0.0000000000
     25562      8494  TIP3      H1            -14.6182515183        8.1053025148       27.4057009020  SOLV      8483            0.0000000000
     25563      8494  TIP3      H2            -14.6318368234        9.1709051740       26.3299418280  SOLV      8483            0.0000000000
     25564      8495  TIP3      OH2            -6.4669976393       18.5960164280       23.6012025859  SOLV      8484            0.0000000000
     25565      8495  TIP3      H1             -6.0801106722       17.8902934068       23.0413476811  SOLV      8484            0.0000000000
     25566      8495  TIP3      H2             -6.6049645542       18.1273217364       24.4327238847  SOLV      8484            0.0000000000
     25567      8496  TIP3      OH2            -7.5036716824       13.2254604386       27.0701884991  SOLV      8485            0.0000000000
     25568      8496  TIP3      H1             -7.1088399565       12.4649421915       26.6132197763  SOLV      8485            0.0000000000
     25569      8496  TIP3      H2             -6.6745911038       13.6842664973       27.3279813795  SOLV      8485            0.0000000000
     25570      8497  TIP3      OH2             2.6861239829        6.3989620500       27.0726989376  SOLV      8486            0.0000000000
     25571      8497  TIP3      H1              2.9797981055        7.2260958489       27.5111717583  SOLV      8486            0.0000000000
     25572      8497  TIP3      H2              2.7070049278        6.6452300740       26.1359029050  SOLV      8486            0.0000000000
     25573      8498  TIP3      OH2            -3.3193687327        8.1968470466       27.3336014753  SOLV      8487            0.0000000000
     25574      8498  TIP3      H1             -2.9257879713        7.3285206493       27.5436914022  SOLV      8487            0.0000000000
     25575      8498  TIP3      H2             -3.6815698824        8.0239012440       26.4427101191  SOLV      8487            0.0000000000
     25576      8499  TIP3      OH2            -9.9022922072        4.7946889180       26.9948512810  SOLV      8488            0.0000000000
     25577      8499  TIP3      H1            -10.1305541982        5.5163551199       26.3698690236  SOLV      8488            0.0000000000
     25578      8499  TIP3      H2            -10.3861668731        4.0528430876       26.5659347967  SOLV      8488            0.0000000000
     25579      8500  TIP3      OH2            -2.9922818909        5.7596785457       23.2111671997  SOLV      8489            0.0000000000
     25580      8500  TIP3      H1             -2.2795145245        5.5932395133       23.8695165357  SOLV      8489            0.0000000000
     25581      8500  TIP3      H2             -2.4602687550        6.0805866265       22.4597017896  SOLV      8489            0.0000000000
     25582      8501  TIP3      OH2           -13.6419876822        6.7979542452       28.1028500189  SOLV      8490            0.0000000000
     25583      8501  TIP3      H1            -12.8046190528        6.6115836922       28.5662942775  SOLV      8490            0.0000000000
     25584      8501  TIP3      H2            -13.5104329238        6.2522139076       27.2959844482  SOLV      8490            0.0000000000
     25585      8502  TIP3      OH2            -9.2643394279        8.7849037140       26.1069673720  SOLV      8491            0.0000000000
     25586      8502  TIP3      H1             -8.3154916223        8.5515707762       26.1873979725  SOLV      8491            0.0000000000
     25587      8502  TIP3      H2             -9.6434300059        7.9549423795       25.7429242842  SOLV      8491            0.0000000000
     25588      8503  TIP3      OH2             3.4164715396        8.5080967592       28.7141395751  SOLV      8492            0.0000000000
     25589      8503  TIP3      H1              2.5531189012        8.9491826066       28.5678281697  SOLV      8492            0.0000000000
     25590      8503  TIP3      H2              3.5800881149        8.7508079204       29.6399724403  SOLV      8492            0.0000000000
     25591      8504  TIP3      OH2            -9.9993745638        4.6407210728       31.3580968039  SOLV      8493            0.0000000000
     25592      8504  TIP3      H1            -10.5664148510        4.9962239332       30.6460373880  SOLV      8493            0.0000000000
     25593      8504  TIP3      H2            -10.5662781971        4.8220566518       32.1351238999  SOLV      8493            0.0000000000
     25594      8505  TIP3      OH2            -6.5882622030       13.1471834173       21.4330798520  SOLV      8494            0.0000000000
     25595      8505  TIP3      H1             -6.9930110622       13.0122082431       20.5623153339  SOLV      8494            0.0000000000
     25596      8505  TIP3      H2             -7.0492839662       13.9604803174       21.7291040142  SOLV      8494            0.0000000000
     25597      8506  TIP3      OH2            -8.9304942441       12.4094652840       29.2764050803  SOLV      8495            0.0000000000
     25598      8506  TIP3      H1             -9.5231041832       13.1059172238       29.6352352847  SOLV      8495            0.0000000000
     25599      8506  TIP3      H2             -8.5141201649       12.8712371125       28.5174054401  SOLV      8495            0.0000000000
     25600      8507  TIP3      OH2            -0.9642915249        5.7850186686       25.0206359381  SOLV      8496            0.0000000000
     25601      8507  TIP3      H1             -1.1738531183        5.3249909033       25.8444013710  SOLV      8496            0.0000000000
     25602      8507  TIP3      H2             -0.4517514693        6.5534137904       25.3318058604  SOLV      8496            0.0000000000
     25603      8508  TIP3      OH2           -11.2607391094        5.7752631659       29.1828319299  SOLV      8497            0.0000000000
     25604      8508  TIP3      H1            -10.6425029457        6.5018989100       29.4212705573  SOLV      8497            0.0000000000
     25605      8508  TIP3      H2            -10.7788223980        5.3859903269       28.4168480286  SOLV      8497            0.0000000000
     25606      8509  TIP3      OH2           -10.6244745547       14.3876326165       30.3097075704  SOLV      8498            0.0000000000
     25607      8509  TIP3      H1            -10.8917518111       15.2493142829       29.9321375352  SOLV      8498            0.0000000000
     25608      8509  TIP3      H2            -11.4245878938       14.1974100834       30.8451973912  SOLV      8498            0.0000000000
     25609      8510  TIP3      OH2           -16.8388612755       11.1893708960       22.6075452482  SOLV      8499            0.0000000000
     25610      8510  TIP3      H1            -17.1538679871       11.4346618732       21.7152499106  SOLV      8499            0.0000000000
     25611      8510  TIP3      H2            -16.4320051721       12.0142556366       22.9235859319  SOLV      8499            0.0000000000
     25612      8511  TIP3      OH2            -2.3259499337       16.4262517340       25.0304327245  SOLV      8500            0.0000000000
     25613      8511  TIP3      H1             -3.2181730057       16.3374322705       25.4394531979  SOLV      8500            0.0000000000
     25614      8511  TIP3      H2             -2.4202355469       17.2883187590       24.5768483811  SOLV      8500            0.0000000000
     25615      8512  TIP3      OH2             0.5880302183        5.3911984876       28.7247531738  SOLV      8501            0.0000000000
     25616      8512  TIP3      H1             -0.2900324984        5.6150262477       28.3719561226  SOLV      8501            0.0000000000
     25617      8512  TIP3      H2              1.1875663415        5.7074040156       28.0192597003  SOLV      8501            0.0000000000
     25618      8513  TIP3      OH2            -6.4775398526        1.7996705507       28.5528250261  SOLV      8502            0.0000000000
     25619      8513  TIP3      H1             -6.6618780862        0.8509625950       28.6880420965  SOLV      8502            0.0000000000
     25620      8513  TIP3      H2             -7.2507953943        2.1950255398       29.0118233829  SOLV      8502            0.0000000000
     25621      8514  TIP3      OH2            -5.3550239526       16.8554159510       21.7501577324  SOLV      8503            0.0000000000
     25622      8514  TIP3      H1             -4.8605571498       16.0191934116       21.5768769821  SOLV      8503            0.0000000000
     25623      8514  TIP3      H2             -4.7111013790       17.4956158978       21.3666707766  SOLV      8503            0.0000000000
     25624      8515  TIP3      OH2            -3.8999822846       14.7018360129       20.9321573483  SOLV      8504            0.0000000000
     25625      8515  TIP3      H1             -4.2670922456       13.9083917276       20.5207057488  SOLV      8504            0.0000000000
     25626      8515  TIP3      H2             -3.4989364775       14.3378018294       21.7512582771  SOLV      8504            0.0000000000
     25627      8516  TIP3      OH2            -0.0824091764       15.4940016893       28.4972380583  SOLV      8505            0.0000000000
     25628      8516  TIP3      H1             -0.2313439146       14.7286368342       27.9010504407  SOLV      8505            0.0000000000
     25629      8516  TIP3      H2             -0.2866246334       16.2505760789       27.9062737965  SOLV      8505            0.0000000000
     25630      8517  TIP3      OH2            -7.1320743958        9.4742155625       21.1116360549  SOLV      8506            0.0000000000
     25631      8517  TIP3      H1             -7.9397490017        9.9968236372       20.9228912745  SOLV      8506            0.0000000000
     25632      8517  TIP3      H2             -6.7261448190        9.4147379544       20.2285280291  SOLV      8506            0.0000000000
     25633      8518  TIP3      OH2            -7.5703776669        7.3311420047       18.1968047212  SOLV      8507            0.0000000000
     25634      8518  TIP3      H1             -6.9000575461        7.8746658066       18.6472877465  SOLV      8507            0.0000000000
     25635      8518  TIP3      H2             -6.9896665131        6.7018234105       17.7194004169  SOLV      8507            0.0000000000
     25636      8519  TIP3      OH2             1.8430030161       11.9058693169       26.9255293338  SOLV      8508            0.0000000000
     25637      8519  TIP3      H1              0.9953808029       12.4036347582       26.9669806499  SOLV      8508            0.0000000000
     25638      8519  TIP3      H2              2.1608537184       12.1727997004       26.0381413059  SOLV      8508            0.0000000000
     25639      8520  TIP3      OH2            -3.6525232448       10.3115163530       20.7593070676  SOLV      8509            0.0000000000
     25640      8520  TIP3      H1             -4.2187573951       10.5360874026       21.5343530148  SOLV      8509            0.0000000000
     25641      8520  TIP3      H2             -2.8186658664       10.0704707761       21.2096667196  SOLV      8509            0.0000000000
     25642      8521  TIP3      OH2            -1.3402176033       10.6526814987       29.9657295572  SOLV      8510            0.0000000000
     25643      8521  TIP3      H1             -1.3710940869       11.4874994503       30.4700753531  SOLV      8510            0.0000000000
     25644      8521  TIP3      H2             -2.2088276778       10.6840160548       29.5144577864  SOLV      8510            0.0000000000
     25645      8522  TIP3      OH2           -11.3600372200       10.2537775202       24.9748361361  SOLV      8511            0.0000000000
     25646      8522  TIP3      H1            -11.7869975812        9.6652845036       24.3114049045  SOLV      8511            0.0000000000
     25647      8522  TIP3      H2            -10.6065635463        9.7045745830       25.2732252963  SOLV      8511            0.0000000000
     25648      8523  TIP3      OH2           -10.0742838930       14.3815135216       26.4263159260  SOLV      8512            0.0000000000
     25649      8523  TIP3      H1            -10.2847826446       14.0741712472       25.5289036088  SOLV      8512            0.0000000000
     25650      8523  TIP3      H2             -9.1926343459       13.9840206234       26.5813316195  SOLV      8512            0.0000000000
     25651      8524  TIP3      OH2           -10.0044314607        9.9549273087       28.5471804179  SOLV      8513            0.0000000000
     25652      8524  TIP3      H1             -9.7098603196        9.6887732367       27.6492133909  SOLV      8513            0.0000000000
     25653      8524  TIP3      H2             -9.5709365981       10.8262694031       28.6655302770  SOLV      8513            0.0000000000
     25654      8525  TIP3      OH2            -4.7090834157       16.3550829624       26.2838554803  SOLV      8514            0.0000000000
     25655      8525  TIP3      H1             -4.8625003641       17.1595362548       26.8104719213  SOLV      8514            0.0000000000
     25656      8525  TIP3      H2             -4.9069714727       15.6323482655       26.9118035747  SOLV      8514            0.0000000000
     25657      8526  TIP3      OH2            -8.6014870057       15.5558988033       31.7692044523  SOLV      8515            0.0000000000
     25658      8526  TIP3      H1             -9.2399024659       16.1553933465       32.2115900772  SOLV      8515            0.0000000000
     25659      8526  TIP3      H2             -9.2220640050       15.0127538708       31.2383461085  SOLV      8515            0.0000000000
     25660      8527  TIP3      OH2            -5.3032920986        8.8726309610       19.0456401850  SOLV      8516            0.0000000000
     25661      8527  TIP3      H1             -4.7151298540        9.4957539404       19.5248189205  SOLV      8516            0.0000000000
     25662      8527  TIP3      H2             -5.0352718788        9.0579621176       18.1100271828  SOLV      8516            0.0000000000
     25663      8528  TIP3      OH2           -11.0358058700       11.0347138843       32.8688401549  SOLV      8517            0.0000000000
     25664      8528  TIP3      H1            -11.0001318256       11.9420505852       33.2327695924  SOLV      8517            0.0000000000
     25665      8528  TIP3      H2            -11.9929754245       10.8468223419       32.9545945686  SOLV      8517            0.0000000000
     25666      8529  TIP3      OH2            -7.8138837685       15.6238634972       21.8384112311  SOLV      8518            0.0000000000
     25667      8529  TIP3      H1             -6.9871201908       16.1450684313       21.8607655068  SOLV      8518            0.0000000000
     25668      8529  TIP3      H2             -8.4108513666       16.1991036533       21.3430821613  SOLV      8518            0.0000000000
     25669      8530  TIP3      OH2           -10.6826043673       17.2182724430       32.6260693432  SOLV      8519            0.0000000000
     25670      8530  TIP3      H1            -11.0295086868       17.2548119843       31.7131410960  SOLV      8519            0.0000000000
     25671      8530  TIP3      H2            -11.4806207946       16.9675240773       33.1446069127  SOLV      8519            0.0000000000
     25672      8531  TIP3      OH2            -0.1113435943        1.2330403408       19.5658900841  SOLV      8520            0.0000000000
     25673      8531  TIP3      H1             -0.9406340608        1.4670289138       20.0307201257  SOLV      8520            0.0000000000
     25674      8531  TIP3      H2              0.0481489441        2.0482741322       19.0431258089  SOLV      8520            0.0000000000
     25675      8532  TIP3      OH2           -12.6438656780        8.6611528521       23.0793357714  SOLV      8521            0.0000000000
     25676      8532  TIP3      H1            -13.2620203945        9.2141593829       22.5443622073  SOLV      8521            0.0000000000
     25677      8532  TIP3      H2            -13.0956657211        7.8107845567       23.0611735831  SOLV      8521            0.0000000000
     25678      8533  TIP3      OH2            -2.1074305409       14.9254388413       15.0499003452  SOLV      8522            0.0000000000
     25679      8533  TIP3      H1             -2.0217909815       15.8874565644       14.8733576904  SOLV      8522            0.0000000000
     25680      8533  TIP3      H2             -1.1821473442       14.6255911045       14.9235834132  SOLV      8522            0.0000000000
     25681      8534  TIP3      OH2           -14.8480966725       12.5130090342       31.9757952008  SOLV      8523            0.0000000000
     25682      8534  TIP3      H1            -15.5579325490       12.3288075499       31.3240326626  SOLV      8523            0.0000000000
     25683      8534  TIP3      H2            -14.4843951911       11.6258456613       32.1570861675  SOLV      8523            0.0000000000
     25684      8535  TIP3      OH2           -16.3216688336       14.4567665726       28.3821159191  SOLV      8524            0.0000000000
     25685      8535  TIP3      H1            -15.3654487045       14.3650779353       28.2734487333  SOLV      8524            0.0000000000
     25686      8535  TIP3      H2            -16.3777216061       15.2305330733       28.9631815517  SOLV      8524            0.0000000000
     25687      8536  TIP3      OH2             2.3083574939       19.0027987859       29.0311144790  SOLV      8525            0.0000000000
     25688      8536  TIP3      H1              2.2788222254       18.0406751193       29.1842549645  SOLV      8525            0.0000000000
     25689      8536  TIP3      H2              1.4672433913       19.2739465265       29.4620768044  SOLV      8525            0.0000000000
     25690      8537  TIP3      OH2            -6.6425095104       16.8073566100       30.3311378286  SOLV      8526            0.0000000000
     25691      8537  TIP3      H1             -6.6911897954       17.7345707228       30.6476581441  SOLV      8526            0.0000000000
     25692      8537  TIP3      H2             -7.3693405793       16.3973205177       30.8516275921  SOLV      8526            0.0000000000
     25693      8538  TIP3      OH2            -8.9750899211       18.0879720134       19.8396805815  SOLV      8527            0.0000000000
     25694      8538  TIP3      H1             -9.4643165781       17.9077970016       19.0172606529  SOLV      8527            0.0000000000
     25695      8538  TIP3      H2             -9.3385500634       18.9493150408       20.1183212294  SOLV      8527            0.0000000000
     25696      8539  TIP3      OH2           -14.6317198989       16.5827607769       23.7036578816  SOLV      8528            0.0000000000
     25697      8539  TIP3      H1            -14.1862981206       16.4920635595       24.5743176324  SOLV      8528            0.0000000000
     25698      8539  TIP3      H2            -15.0709739548       15.7127499184       23.6279813648  SOLV      8528            0.0000000000
     25699      8540  TIP3      OH2            -7.0225140201       17.1407798663       16.2043504963  SOLV      8529            0.0000000000
     25700      8540  TIP3      H1             -6.4390955180       16.4352764695       15.8460669679  SOLV      8529            0.0000000000
     25701      8540  TIP3      H2             -6.6682268188       17.2424990245       17.1126156527  SOLV      8529            0.0000000000
     25702      8541  TIP3      OH2            -6.4807763136       17.6187352658       18.8950452981  SOLV      8530            0.0000000000
     25703      8541  TIP3      H1             -7.3709626975       17.7178489949       19.3017833438  SOLV      8530            0.0000000000
     25704      8541  TIP3      H2             -5.9821410706       17.2324982230       19.6325164908  SOLV      8530            0.0000000000
     25705      8542  TIP3      OH2             1.1861407483       10.2660907963       31.7252791029  SOLV      8531            0.0000000000
     25706      8542  TIP3      H1              0.3342582769       10.3390029528       31.2699227500  SOLV      8531            0.0000000000
     25707      8542  TIP3      H2              1.3636730295        9.3065746235       31.6487782563  SOLV      8531            0.0000000000
     25708      8543  TIP3      OH2           -12.8498344863       14.3903793978       31.9215173588  SOLV      8532            0.0000000000
     25709      8543  TIP3      H1            -12.3576399148       14.1989261755       32.7457524300  SOLV      8532            0.0000000000
     25710      8543  TIP3      H2            -13.5831640022       13.7409494217       31.9693303210  SOLV      8532            0.0000000000
     25711      8544  TIP3      OH2            -8.8405311647        2.5663856009       29.8450148786  SOLV      8533            0.0000000000
     25712      8544  TIP3      H1             -9.7141260988        2.2658183888       29.5155629040  SOLV      8533            0.0000000000
     25713      8544  TIP3      H2             -9.1214599925        3.3744052431       30.3187820836  SOLV      8533            0.0000000000
     25714      8545  TIP3      OH2            -3.4798433666        3.7203107427       31.7713621780  SOLV      8534            0.0000000000
     25715      8545  TIP3      H1             -2.7868123184        3.4463705001       32.4054155049  SOLV      8534            0.0000000000
     25716      8545  TIP3      H2             -4.3080644023        3.5368815173       32.2586615430  SOLV      8534            0.0000000000
     25717      8546  TIP3      OH2            -1.1660214018        8.0356864808       30.9624309737  SOLV      8535            0.0000000000
     25718      8546  TIP3      H1             -1.6853595522        8.0125174444       31.7981789231  SOLV      8535            0.0000000000
     25719      8546  TIP3      H2             -1.3934124343        8.9107745906       30.5949376700  SOLV      8535            0.0000000000
     25720      8547  TIP3      OH2            -4.4817732408        9.2957629786       16.5253103674  SOLV      8536            0.0000000000
     25721      8547  TIP3      H1             -4.8861381685        9.0843725409       15.6610790935  SOLV      8536            0.0000000000
     25722      8547  TIP3      H2             -3.6424997444        9.7068794660       16.2397407307  SOLV      8536            0.0000000000
     25723      8548  TIP3      OH2            -7.3831228688        3.0241095650       19.5461783549  SOLV      8537            0.0000000000
     25724      8548  TIP3      H1             -7.7767039167        2.9877023659       20.4401347603  SOLV      8537            0.0000000000
     25725      8548  TIP3      H2             -7.8114332435        2.2373429709       19.1522464914  SOLV      8537            0.0000000000
     25726      8549  TIP3      OH2            -9.5010355218        7.7398720019       30.0161716692  SOLV      8538            0.0000000000
     25727      8549  TIP3      H1            -10.0333693248        7.9438016682       30.8134536787  SOLV      8538            0.0000000000
     25728      8549  TIP3      H2             -9.6527993162        8.5531667027       29.4822708043  SOLV      8538            0.0000000000
     25729      8550  TIP3      OH2           -10.6815740740        6.6080824918       25.1495179875  SOLV      8539            0.0000000000
     25730      8550  TIP3      H1            -11.6181387923        6.3741532537       25.3192163854  SOLV      8539            0.0000000000
     25731      8550  TIP3      H2            -10.5734663033        6.2186411340       24.2509941812  SOLV      8539            0.0000000000
     25732      8551  TIP3      OH2            -5.7707800257        7.4744707471       22.4642003475  SOLV      8540            0.0000000000
     25733      8551  TIP3      H1             -6.2751332967        8.1775485654       21.9991573903  SOLV      8540            0.0000000000
     25734      8551  TIP3      H2             -5.2306512846        7.1081390333       21.7333907361  SOLV      8540            0.0000000000
     25735      8552  TIP3      OH2            -4.0286682857       10.1981230965       33.2616869518  SOLV      8541            0.0000000000
     25736      8552  TIP3      H1             -4.2585032709        9.4861885643       33.8998484070  SOLV      8541            0.0000000000
     25737      8552  TIP3      H2             -3.0854674241       10.3255861591       33.4766843704  SOLV      8541            0.0000000000
     25738      8553  TIP3      OH2            -4.2286928453        7.7250968485       24.7841277782  SOLV      8542            0.0000000000
     25739      8553  TIP3      H1             -4.8730454852        7.9815167855       24.0905093517  SOLV      8542            0.0000000000
     25740      8553  TIP3      H2             -3.8565504673        6.9389201515       24.3294972005  SOLV      8542            0.0000000000
     25741      8554  TIP3      OH2           -11.3164735782        8.0216609693       32.0628390332  SOLV      8543            0.0000000000
     25742      8554  TIP3      H1            -11.0471730181        8.6662424963       32.7345193211  SOLV      8543            0.0000000000
     25743      8554  TIP3      H2            -11.4428796872        7.2090699445       32.5876556139  SOLV      8543            0.0000000000
     25744      8555  TIP3      OH2           -10.7883050955        2.8290933213       19.1938316627  SOLV      8544            0.0000000000
     25745      8555  TIP3      H1            -10.9527325118        2.8147586848       20.1558683761  SOLV      8544            0.0000000000
     25746      8555  TIP3      H2            -11.5736074424        3.3307423659       18.8877953082  SOLV      8544            0.0000000000
     25747      8556  TIP3      OH2           -15.4347280222        3.1970414787       27.9825744565  SOLV      8545            0.0000000000
     25748      8556  TIP3      H1            -14.6400989692        3.5463719236       28.4281990224  SOLV      8545            0.0000000000
     25749      8556  TIP3      H2            -15.1237462987        2.9654361421       27.0909591826  SOLV      8545            0.0000000000
     25750      8557  TIP3      OH2           -15.7496602306        3.0743597566       23.0644731442  SOLV      8546            0.0000000000
     25751      8557  TIP3      H1            -15.2772403103        3.4125297581       22.2749654046  SOLV      8546            0.0000000000
     25752      8557  TIP3      H2            -16.3746344302        3.8097138772       23.2143133233  SOLV      8546            0.0000000000
     25753      8558  TIP3      OH2            -4.0834286910       10.1567723817       29.0110072750  SOLV      8547            0.0000000000
     25754      8558  TIP3      H1             -3.7535840997        9.4505793703       28.4069546179  SOLV      8547            0.0000000000
     25755      8558  TIP3      H2             -4.4147490684        9.6062284874       29.7529833950  SOLV      8547            0.0000000000
     25756      8559  TIP3      OH2            -7.3293374634        4.8028650098       25.7428100211  SOLV      8548            0.0000000000
     25757      8559  TIP3      H1             -8.1677217631        4.8051730346       26.2475385475  SOLV      8548            0.0000000000
     25758      8559  TIP3      H2             -6.6663131892        4.7514369057       26.4507079147  SOLV      8548            0.0000000000
     25759      8560  TIP3      OH2           -13.0926801729        5.3957516764       25.8198395353  SOLV      8549            0.0000000000
     25760      8560  TIP3      H1            -14.0293089853        5.4856509883       25.5182234054  SOLV      8549            0.0000000000
     25761      8560  TIP3      H2            -12.8757043317        4.4807781919       25.5682454007  SOLV      8549            0.0000000000
     25762      8561  TIP3      OH2           -10.4333299096        5.3480567693       22.7361103604  SOLV      8550            0.0000000000
     25763      8561  TIP3      H1             -9.5094323199        5.4863869555       22.4613842819  SOLV      8550            0.0000000000
     25764      8561  TIP3      H2            -10.9385276154        5.5475407819       21.9111445914  SOLV      8550            0.0000000000
     25765      8562  TIP3      OH2            -2.4899765502        5.5771390044       27.7741883006  SOLV      8551            0.0000000000
     25766      8562  TIP3      H1             -2.7966651866        5.7192096979       28.6986737827  SOLV      8551            0.0000000000
     25767      8562  TIP3      H2             -3.1854466705        4.9750428497       27.4513514764  SOLV      8551            0.0000000000
     25768      8563  TIP3      OH2           -11.8950327608        5.6813786963       20.4926789658  SOLV      8552            0.0000000000
     25769      8563  TIP3      H1            -12.6054903085        5.2146488244       20.0141131949  SOLV      8552            0.0000000000
     25770      8563  TIP3      H2            -11.3876178714        6.0487108178       19.7387936787  SOLV      8552            0.0000000000
     25771      8564  TIP3      OH2            -0.7493889598       22.4766743202       29.9849512883  SOLV      8553            0.0000000000
     25772      8564  TIP3      H1             -0.7874877243       22.7462360754       29.0485545167  SOLV      8553            0.0000000000
     25773      8564  TIP3      H2              0.0522083602       22.9494767111       30.2855733536  SOLV      8553            0.0000000000
     25774      8565  TIP3      OH2           -11.1999275774       13.6208469106       34.1065419418  SOLV      8554            0.0000000000
     25775      8565  TIP3      H1            -10.4056783136       13.9175115902       34.5959600132  SOLV      8554            0.0000000000
     25776      8565  TIP3      H2            -11.8146154781       13.4974513954       34.8534524086  SOLV      8554            0.0000000000
     25777      8566  TIP3      OH2            -6.6010052417        8.1338544735       26.7393298661  SOLV      8555            0.0000000000
     25778      8566  TIP3      H1             -5.8827309137        7.7233182055       26.2355552794  SOLV      8555            0.0000000000
     25779      8566  TIP3      H2             -6.5616789809        7.6593644150       27.5903563204  SOLV      8555            0.0000000000
     25780      8567  TIP3      OH2           -11.3658416387        2.9607265805       25.5607795582  SOLV      8556            0.0000000000
     25781      8567  TIP3      H1            -11.7634750887        2.2048564160       26.0452202201  SOLV      8556            0.0000000000
     25782      8567  TIP3      H2            -11.0557044890        2.5319120127       24.7511374513  SOLV      8556            0.0000000000
     25783      8568  TIP3      OH2            -6.8212852011        7.1203079248       29.6039808645  SOLV      8557            0.0000000000
     25784      8568  TIP3      H1             -7.7301786979        7.4559781294       29.7454096620  SOLV      8557            0.0000000000
     25785      8568  TIP3      H2             -6.2695126312        7.7544566966       30.1016037108  SOLV      8557            0.0000000000
     25786      8569  TIP3      OH2            -9.4438168699       10.9848064891       20.5879479120  SOLV      8558            0.0000000000
     25787      8569  TIP3      H1            -10.1474969463       10.3087725477       20.4603922181  SOLV      8558            0.0000000000
     25788      8569  TIP3      H2             -9.6730879114       11.3219692068       21.4887952156  SOLV      8558            0.0000000000
     25789      8570  TIP3      OH2            -0.4923953056       13.3349348862       26.8168660740  SOLV      8559            0.0000000000
     25790      8570  TIP3      H1             -0.2816454245       13.8632345472       26.0206516979  SOLV      8559            0.0000000000
     25791      8570  TIP3      H2             -1.3383203082       12.9012272849       26.5616597863  SOLV      8559            0.0000000000
     25792      8571  TIP3      OH2            -4.8784666498        4.0324370682       19.3300632661  SOLV      8560            0.0000000000
     25793      8571  TIP3      H1             -5.8425579654        3.8188216621       19.3544072697  SOLV      8560            0.0000000000
     25794      8571  TIP3      H2             -4.8598928186        4.9936829881       19.4997859649  SOLV      8560            0.0000000000
     25795      8572  TIP3      OH2            -5.4801736862       14.1714078670       30.5399432039  SOLV      8561            0.0000000000
     25796      8572  TIP3      H1             -5.1541907341       14.0036413290       31.4320985640  SOLV      8561            0.0000000000
     25797      8572  TIP3      H2             -5.8500379709       15.0686369499       30.6066206085  SOLV      8561            0.0000000000
     25798      8573  TIP3      OH2            -4.2204428460        6.6165231385       20.2971833030  SOLV      8562            0.0000000000
     25799      8573  TIP3      H1             -3.2523900009        6.6808030754       20.3875948632  SOLV      8562            0.0000000000
     25800      8573  TIP3      H2             -4.4392442387        7.4001316001       19.7538374914  SOLV      8562            0.0000000000
     25801      8574  TIP3      OH2           -12.4800217998       11.2868933635       27.2952209532  SOLV      8563            0.0000000000
     25802      8574  TIP3      H1            -12.1455020311       10.9708777884       26.4296971384  SOLV      8563            0.0000000000
     25803      8574  TIP3      H2            -12.1193637479       10.6229104080       27.8982947539  SOLV      8563            0.0000000000
     25804      8575  TIP3      OH2            -7.9924378377       12.4828668605       18.8356698400  SOLV      8564            0.0000000000
     25805      8575  TIP3      H1             -8.4913845161       13.3336264044       18.8453772351  SOLV      8564            0.0000000000
     25806      8575  TIP3      H2             -8.5442148616       11.9338996194       19.4354387348  SOLV      8564            0.0000000000
     25807      8576  TIP3      OH2           -13.7129281136       10.3460433834       33.4337215673  SOLV      8565            0.0000000000
     25808      8576  TIP3      H1            -13.7663181199       10.1536159347       34.3936038793  SOLV      8565            0.0000000000
     25809      8576  TIP3      H2            -14.4597610277        9.8137554563       33.0953822283  SOLV      8565            0.0000000000
     25810      8577  TIP3      OH2            -6.4169889357       11.5944512549       33.6236027158  SOLV      8566            0.0000000000
     25811      8577  TIP3      H1             -7.0516090205       11.0118617469       33.1764025015  SOLV      8566            0.0000000000
     25812      8577  TIP3      H2             -5.5659594544       11.2013115155       33.3331503785  SOLV      8566            0.0000000000
     25813      8578  TIP3      OH2            -3.8761112934       16.7637592404       29.5542564150  SOLV      8567            0.0000000000
     25814      8578  TIP3      H1             -4.8429291751       16.7484572470       29.6658603599  SOLV      8567            0.0000000000
     25815      8578  TIP3      H2             -3.6138654193       17.3239900111       30.3128006715  SOLV      8567            0.0000000000
     25816      8579  TIP3      OH2             0.2334355825        7.5537274486       18.5963265891  SOLV      8568            0.0000000000
     25817      8579  TIP3      H1             -0.3817153331        7.1099300812       17.9627603456  SOLV      8568            0.0000000000
     25818      8579  TIP3      H2              0.1960426223        8.4480315013       18.1911338125  SOLV      8568            0.0000000000
     25819      8580  TIP3      OH2             2.4184336890       16.0805919023       29.3867634629  SOLV      8569            0.0000000000
     25820      8580  TIP3      H1              1.4411639149       16.0214408303       29.2956764549  SOLV      8569            0.0000000000
     25821      8580  TIP3      H2              2.6851822607       15.7942818014       28.4845264853  SOLV      8569            0.0000000000
     25822      8581  TIP3      OH2            -2.7100132964       15.6767593906       17.7028225784  SOLV      8570            0.0000000000
     25823      8581  TIP3      H1             -3.0639661725       14.9803085287       18.2727847310  SOLV      8570            0.0000000000
     25824      8581  TIP3      H2             -2.6153897718       15.2292352168       16.8418559512  SOLV      8570            0.0000000000
     25825      8582  TIP3      OH2            -2.8039159654       11.9705748464       25.9948184856  SOLV      8571            0.0000000000
     25826      8582  TIP3      H1             -3.7431755637       11.7399254769       26.1431756795  SOLV      8571            0.0000000000
     25827      8582  TIP3      H2             -2.4933923671       11.1609260721       25.5445748194  SOLV      8571            0.0000000000
     25828      8583  TIP3      OH2           -11.4912735566       14.2940058211       23.6285741015  SOLV      8572            0.0000000000
     25829      8583  TIP3      H1            -11.5578633049       15.0813307804       23.0534029898  SOLV      8572            0.0000000000
     25830      8583  TIP3      H2            -12.4111768157       14.0076820489       23.6665723805  SOLV      8572            0.0000000000
     25831      8584  TIP3      OH2           -10.1997436999       11.8957241184       23.0087357882  SOLV      8573            0.0000000000
     25832      8584  TIP3      H1            -10.5218317697       12.7926040127       23.2208223786  SOLV      8573            0.0000000000
     25833      8584  TIP3      H2            -10.5729127316       11.3712603986       23.7413979276  SOLV      8573            0.0000000000
     25834      8585  TIP3      OH2            -8.8059383726       17.6828461809       28.2508156085  SOLV      8574            0.0000000000
     25835      8585  TIP3      H1             -8.3862610232       18.4053296344       27.7368972795  SOLV      8574            0.0000000000
     25836      8585  TIP3      H2             -8.0326067332       17.2864457205       28.6817741666  SOLV      8574            0.0000000000
     25837      8586  TIP3      OH2           -12.3456524136       16.6549564701       22.0882138397  SOLV      8575            0.0000000000
     25838      8586  TIP3      H1            -13.1936837352       16.7521744930       22.5654684149  SOLV      8575            0.0000000000
     25839      8586  TIP3      H2            -12.0136356212       17.5800397666       22.1136556519  SOLV      8575            0.0000000000
     25840      8587  TIP3      OH2            -4.9869703403       14.0250273169       27.8638940178  SOLV      8576            0.0000000000
     25841      8587  TIP3      H1             -5.0988835520       14.0078970905       28.8417028374  SOLV      8576            0.0000000000
     25842      8587  TIP3      H2             -4.2017780071       13.4724576396       27.7528517208  SOLV      8576            0.0000000000
     25843      8588  TIP3      OH2            -5.1676537069       13.0139402988       16.6901432356  SOLV      8577            0.0000000000
     25844      8588  TIP3      H1             -4.6534770088       12.7440008485       17.4852812771  SOLV      8577            0.0000000000
     25845      8588  TIP3      H2             -6.0478015310       12.6774072636       16.9200866913  SOLV      8577            0.0000000000
     25846      8589  TIP3      OH2            -2.4692558331       19.3251528501       28.3284511105  SOLV      8578            0.0000000000
     25847      8589  TIP3      H1             -3.2887594774       18.7965048413       28.2635744486  SOLV      8578            0.0000000000
     25848      8589  TIP3      H2             -2.6202537096       19.9822659800       27.6123025502  SOLV      8578            0.0000000000
     25849      8590  TIP3      OH2            -1.8063105367       17.6804826645       14.8656977795  SOLV      8579            0.0000000000
     25850      8590  TIP3      H1             -1.4575438639       18.4129523593       14.3323706359  SOLV      8579            0.0000000000
     25851      8590  TIP3      H2             -2.6095024480       18.1134809743       15.2226806080  SOLV      8579            0.0000000000
     25852      8591  TIP3      OH2           -11.7011414776        5.3967644174       33.4485482982  SOLV      8580            0.0000000000
     25853      8591  TIP3      H1            -12.6754629332        5.4182178623       33.5208820407  SOLV      8580            0.0000000000
     25854      8591  TIP3      H2            -11.4710524700        4.6965719367       34.0795699903  SOLV      8580            0.0000000000
     25855      8592  TIP3      OH2            -3.5684810195       12.3286016105       18.8454314717  SOLV      8581            0.0000000000
     25856      8592  TIP3      H1             -3.6820920867       11.6503564509       19.5405839673  SOLV      8581            0.0000000000
     25857      8592  TIP3      H2             -2.6011734556       12.2651958251       18.6989235184  SOLV      8581            0.0000000000
     25858      8593  TIP3      OH2           -14.4591024133       16.2970040238       29.8384948683  SOLV      8582            0.0000000000
     25859      8593  TIP3      H1            -13.9124193983       15.5763547246       30.1942446165  SOLV      8582            0.0000000000
     25860      8593  TIP3      H2            -14.1550314383       17.0446802568       30.3698736043  SOLV      8582            0.0000000000
     25861      8594  TIP3      OH2           -11.5567223619       12.7524995984       16.6887385429  SOLV      8583            0.0000000000
     25862      8594  TIP3      H1            -11.4406923298       11.8192641692       16.4283384248  SOLV      8583            0.0000000000
     25863      8594  TIP3      H2            -11.7903824080       12.6583392150       17.6336135868  SOLV      8583            0.0000000000
     25864      8595  TIP3      OH2           -12.1472396423       12.8269617190       19.4013357426  SOLV      8584            0.0000000000
     25865      8595  TIP3      H1            -11.4026910895       12.5196887861       19.9372572873  SOLV      8584            0.0000000000
     25866      8595  TIP3      H2            -12.0785994042       13.8034951914       19.4953932226  SOLV      8584            0.0000000000
     25867      8596  TIP3      OH2           -14.4707214058       10.0200530662       21.6008112982  SOLV      8585            0.0000000000
     25868      8596  TIP3      H1            -15.3383072451       10.1549204990       22.0237054554  SOLV      8585            0.0000000000
     25869      8596  TIP3      H2            -14.5600901498       10.5886309916       20.8153300012  SOLV      8585            0.0000000000
     25870      8597  TIP3      OH2            -3.1972912052        6.0920920256       30.3766283194  SOLV      8586            0.0000000000
     25871      8597  TIP3      H1             -2.3986711598        6.4864376686       30.7652321206  SOLV      8586            0.0000000000
     25872      8597  TIP3      H2             -3.3248166715        5.2852684606       30.9205129770  SOLV      8586            0.0000000000
     25873      8598  TIP3      OH2            -4.4024888053        3.5504494073       22.0880788959  SOLV      8587            0.0000000000
     25874      8598  TIP3      H1             -4.5719488807        3.7353339171       21.1415217280  SOLV      8587            0.0000000000
     25875      8598  TIP3      H2             -4.0386270729        4.4058341064       22.3989488989  SOLV      8587            0.0000000000
     25876      8599  TIP3      OH2            -9.4050956508       14.7817375611       18.8983512984  SOLV      8588            0.0000000000
     25877      8599  TIP3      H1            -10.2827377810       15.0106428803       19.2628868724  SOLV      8588            0.0000000000
     25878      8599  TIP3      H2             -9.2901141934       15.5067597783       18.2655624572  SOLV      8588            0.0000000000
     25879      8600  TIP3      OH2            -7.5479620722        5.4304350755       23.0528215274  SOLV      8589            0.0000000000
     25880      8600  TIP3      H1             -6.9311954098        6.1743592168       22.8855371638  SOLV      8589            0.0000000000
     25881      8600  TIP3      H2             -7.5020387696        5.3561090362       24.0288893657  SOLV      8589            0.0000000000
     25882      8601  TIP3      OH2            -4.8420838649        8.5706525325       31.0893145801  SOLV      8590            0.0000000000
     25883      8601  TIP3      H1             -4.5804152341        9.0857717696       31.8801323989  SOLV      8590            0.0000000000
     25884      8601  TIP3      H2             -4.3246546947        7.7529711849       31.1925799383  SOLV      8590            0.0000000000
     25885      8602  TIP3      OH2            -6.1584378430        2.6173753433       24.0489305918  SOLV      8591            0.0000000000
     25886      8602  TIP3      H1             -6.2984022172        3.4360312579       24.5604307931  SOLV      8591            0.0000000000
     25887      8602  TIP3      H2             -5.5177650161        2.9347522183       23.3699120463  SOLV      8591            0.0000000000
     25888      8603  TIP3      OH2           -11.9352629620       15.5474265613       19.5964259264  SOLV      8592            0.0000000000
     25889      8603  TIP3      H1            -12.2525826005       16.2448812043       18.9806842696  SOLV      8592            0.0000000000
     25890      8603  TIP3      H2            -12.1166276869       15.9642986293       20.4675847141  SOLV      8592            0.0000000000
     25891      8604  TIP3      OH2           -11.0019908204        2.6907865638       21.9680280695  SOLV      8593            0.0000000000
     25892      8604  TIP3      H1            -11.0243795046        3.6014824129       22.3203686609  SOLV      8593            0.0000000000
     25893      8604  TIP3      H2            -10.0371091669        2.5232072743       22.0164097580  SOLV      8593            0.0000000000
     25894      8605  TIP3      OH2             1.4927446853        7.5946405714       30.8983621361  SOLV      8594            0.0000000000
     25895      8605  TIP3      H1              0.5145151891        7.6128023836       30.9951453652  SOLV      8594            0.0000000000
     25896      8605  TIP3      H2              1.5689177493        7.0353665628       30.1136822645  SOLV      8594            0.0000000000
     25897      8606  TIP3      OH2            -1.9347254166        9.5044926376       24.7898721047  SOLV      8595            0.0000000000
     25898      8606  TIP3      H1             -2.7235636662        8.9438761300       24.9096359661  SOLV      8595            0.0000000000
     25899      8606  TIP3      H2             -1.2524463974        9.0149939303       25.2929161965  SOLV      8595            0.0000000000
     25900      8607  TIP3      OH2           -14.8077562042       11.8077053036       19.4228069773  SOLV      8596            0.0000000000
     25901      8607  TIP3      H1            -14.0402934288       12.4036251542       19.5259794426  SOLV      8596            0.0000000000
     25902      8607  TIP3      H2            -14.4179028084       11.1757829796       18.7775339493  SOLV      8596            0.0000000000
     25903      8608  TIP3      OH2           -15.3860762292        4.6215797280       20.7940408624  SOLV      8597            0.0000000000
     25904      8608  TIP3      H1            -15.5999820630        5.5409839628       21.0272373336  SOLV      8597            0.0000000000
     25905      8608  TIP3      H2            -16.2586923028        4.3751537216       20.4535036721  SOLV      8597            0.0000000000
     25906      8609  TIP3      OH2            -2.2429583237       19.1216129609       24.2616659829  SOLV      8598            0.0000000000
     25907      8609  TIP3      H1             -2.6794184390       19.5943884290       23.5160989424  SOLV      8598            0.0000000000
     25908      8609  TIP3      H2             -1.3003353435       19.3055713871       24.0500140062  SOLV      8598            0.0000000000
     25909      8610  TIP3      OH2           -11.4891669702        1.7957582181       29.5106891968  SOLV      8599            0.0000000000
     25910      8610  TIP3      H1            -11.7921158314        1.4666736756       28.6353982450  SOLV      8599            0.0000000000
     25911      8610  TIP3      H2            -11.6280394904        1.0080051101       30.0744977852  SOLV      8599            0.0000000000
     25912      8611  TIP3      OH2           -16.0747534007       14.0756713677       23.3235506542  SOLV      8600            0.0000000000
     25913      8611  TIP3      H1            -16.7493775376       14.2952035532       23.9799970955  SOLV      8600            0.0000000000
     25914      8611  TIP3      H2            -16.4680685120       14.4589289296       22.5025540133  SOLV      8600            0.0000000000
     25915      8612  TIP3      OH2           -14.3816437772       19.4016979268       33.9771415109  SOLV      8601            0.0000000000
     25916      8612  TIP3      H1            -13.5562878604       19.3302109765       34.4894267780  SOLV      8601            0.0000000000
     25917      8612  TIP3      H2            -14.6862278472       18.4824256974       33.9810231231  SOLV      8601            0.0000000000
     25918      8613  TIP3      OH2            -9.7108860712       18.9452378112       34.4944720939  SOLV      8602            0.0000000000
     25919      8613  TIP3      H1             -8.7843115334       18.6684865574       34.5388070757  SOLV      8602            0.0000000000
     25920      8613  TIP3      H2            -10.0321057819       18.3479349125       33.7833480836  SOLV      8602            0.0000000000
     25921      8614  TIP3      OH2            -9.9212301342       14.7698682830       15.7814920245  SOLV      8603            0.0000000000
     25922      8614  TIP3      H1            -10.4717937019       14.0397689189       16.1513836867  SOLV      8603            0.0000000000
     25923      8614  TIP3      H2             -9.1638137029       14.2654314957       15.4330430832  SOLV      8603            0.0000000000
     25924      8615  TIP3      OH2            -3.4115125290       18.1724241384       31.9014040635  SOLV      8604            0.0000000000
     25925      8615  TIP3      H1             -3.4516040631       17.4277043543       32.5468075278  SOLV      8604            0.0000000000
     25926      8615  TIP3      H2             -2.5967205505       18.6390553112       32.1725117866  SOLV      8604            0.0000000000
     25927      8616  TIP3      OH2            -5.5713484829       15.1638279933       14.9391986448  SOLV      8605            0.0000000000
     25928      8616  TIP3      H1             -5.1879915299       14.4924279038       15.5388242642  SOLV      8605            0.0000000000
     25929      8616  TIP3      H2             -5.0037042800       15.0968580298       14.1468218486  SOLV      8605            0.0000000000
     25930      8617  TIP3      OH2           -13.2540164262       13.4853841689       36.0240395792  SOLV      8606            0.0000000000
     25931      8617  TIP3      H1            -12.9265114834       12.5579966168       36.0361197645  SOLV      8606            0.0000000000
     25932      8617  TIP3      H2            -14.0800920947       13.4049027057       35.4961085385  SOLV      8606            0.0000000000
     25933      8618  TIP3      OH2           -13.4626444011        9.9431786207       18.0200802485  SOLV      8607            0.0000000000
     25934      8618  TIP3      H1            -12.9333083074        9.6192705320       18.7687301707  SOLV      8607            0.0000000000
     25935      8618  TIP3      H2            -12.7725343621        9.9852086628       17.3219853437  SOLV      8607            0.0000000000
     25936      8619  TIP3      OH2            -7.1809609956       14.3433825846       33.8415905550  SOLV      8608            0.0000000000
     25937      8619  TIP3      H1             -7.5984631409       14.5535816208       32.9813338305  SOLV      8608            0.0000000000
     25938      8619  TIP3      H2             -6.8738749366       13.4209689543       33.7106362310  SOLV      8608            0.0000000000
     25939      8620  TIP3      OH2            -8.2416022084       11.9726059436       16.1318408203  SOLV      8609            0.0000000000
     25940      8620  TIP3      H1             -8.2617470920       12.0637020388       17.1056596240  SOLV      8609            0.0000000000
     25941      8620  TIP3      H2             -8.2407224686       10.9930660057       16.0440250589  SOLV      8609            0.0000000000
     25942      8621  TIP3      OH2            -2.2439916472       14.4664567310       29.9121827368  SOLV      8610            0.0000000000
     25943      8621  TIP3      H1             -1.4753087326       14.8785839293       29.4731086459  SOLV      8610            0.0000000000
     25944      8621  TIP3      H2             -2.9317168479       15.1397606162       29.7374822052  SOLV      8610            0.0000000000
     25945      8622  TIP3      OH2           -11.7829591191       11.2103269853       35.9724441805  SOLV      8611            0.0000000000
     25946      8622  TIP3      H1            -11.1778911737       10.5824112795       35.5579608475  SOLV      8611            0.0000000000
     25947      8622  TIP3      H2            -11.8958684104       10.8533503861       36.8602857923  SOLV      8611            0.0000000000
     25948      8623  TIP3      OH2           -11.3344265015        9.0231380719       20.2419301689  SOLV      8612            0.0000000000
     25949      8623  TIP3      H1            -11.7221899371        8.6080109292       21.0272849328  SOLV      8612            0.0000000000
     25950      8623  TIP3      H2            -10.9853708518        8.2515743072       19.7477804792  SOLV      8612            0.0000000000
     25951      8624  TIP3      OH2            -8.6627796302        9.6460506825       32.5592767749  SOLV      8613            0.0000000000
     25952      8624  TIP3      H1             -9.4602431952       10.2191287387       32.5463221518  SOLV      8613            0.0000000000
     25953      8624  TIP3      H2             -8.1588515491        9.9927810424       31.7853369962  SOLV      8613            0.0000000000
     25954      8625  TIP3      OH2           -10.3541425400        6.9722929488       18.6238326087  SOLV      8614            0.0000000000
     25955      8625  TIP3      H1            -10.6080257372        7.0544711322       17.6805036713  SOLV      8614            0.0000000000
     25956      8625  TIP3      H2             -9.3770131345        6.9626631876       18.5474013414  SOLV      8614            0.0000000000
     25957      8626  TIP3      OH2            -3.4826993260       13.6568346684       33.8550823955  SOLV      8615            0.0000000000
     25958      8626  TIP3      H1             -2.7416989054       13.3037648883       33.3462129651  SOLV      8615            0.0000000000
     25959      8626  TIP3      H2             -3.5618856059       13.0066258796       34.5761777974  SOLV      8615            0.0000000000
     25960      8627  TIP3      OH2            -2.1678034052       10.2215807749       15.3256569235  SOLV      8616            0.0000000000
     25961      8627  TIP3      H1             -2.3584908068        9.7936166317       14.4652928248  SOLV      8616            0.0000000000
     25962      8627  TIP3      H2             -2.5136387316       11.1234707997       15.1237816302  SOLV      8616            0.0000000000
     25963      8628  TIP3      OH2            -7.4564834053        7.5521226451       33.7915816741  SOLV      8617            0.0000000000
     25964      8628  TIP3      H1             -7.4381007835        6.7791380433       33.1912365615  SOLV      8617            0.0000000000
     25965      8628  TIP3      H2             -7.8916228113        8.2314845318       33.2269022950  SOLV      8617            0.0000000000
     25966      8629  TIP3      OH2            -7.4242359975        5.4349209936       31.8796431591  SOLV      8618            0.0000000000
     25967      8629  TIP3      H1             -7.1293665063        5.8424277081       31.0419381984  SOLV      8618            0.0000000000
     25968      8629  TIP3      H2             -8.3540676481        5.2028576959       31.6681049305  SOLV      8618            0.0000000000
     25969      8630  TIP3      OH2            -7.2084095022       10.7508188920       30.6112383226  SOLV      8619            0.0000000000
     25970      8630  TIP3      H1             -6.3487120919       10.9013456255       30.1984979850  SOLV      8619            0.0000000000
     25971      8630  TIP3      H2             -7.7813812636       11.3871784001       30.1304164459  SOLV      8619            0.0000000000
     25972      8631  TIP3      OH2            -1.3690781409       10.4083617299       34.3316652253  SOLV      8620            0.0000000000
     25973      8631  TIP3      H1             -0.9020719284        9.5826180217       34.5378521120  SOLV      8620            0.0000000000
     25974      8631  TIP3      H2             -0.6610163932       10.9499448889       33.9548876800  SOLV      8620            0.0000000000
     25975      8632  TIP3      OH2            -0.9587757103       12.9574138350       31.7390802053  SOLV      8621            0.0000000000
     25976      8632  TIP3      H1             -1.5329530795       13.5151466845       31.1613193139  SOLV      8621            0.0000000000
     25977      8632  TIP3      H2             -0.0778659326       13.1712138029       31.3573371166  SOLV      8621            0.0000000000
     25978      8633  TIP3      OH2            -8.8786950325        8.7540329518       35.9242776752  SOLV      8622            0.0000000000
     25979      8633  TIP3      H1             -9.5661494272        8.0596818044       35.8846915382  SOLV      8622            0.0000000000
     25980      8633  TIP3      H2             -8.3322608293        8.5170479047       35.1496640323  SOLV      8622            0.0000000000
     25981      8634  TIP3      OH2            -6.1132650844        3.0362772392       32.5928467688  SOLV      8623            0.0000000000
     25982      8634  TIP3      H1             -6.6108160323        3.8400126336       32.3308187357  SOLV      8623            0.0000000000
     25983      8634  TIP3      H2             -6.7798776127        2.3356825229       32.4417381726  SOLV      8623            0.0000000000
     25984      8635  TIP3      OH2            -4.8873928726        8.0722766154       34.7488486788  SOLV      8624            0.0000000000
     25985      8635  TIP3      H1             -5.0564583464        7.8693965077       35.6876368927  SOLV      8624            0.0000000000
     25986      8635  TIP3      H2             -5.7628292253        7.8364223045       34.3756479734  SOLV      8624            0.0000000000
     25987      8636  TIP3      OH2            -2.5054403630        7.5620623454       33.2520821835  SOLV      8625            0.0000000000
     25988      8636  TIP3      H1             -3.2194718228        7.5429423167       33.9184771547  SOLV      8625            0.0000000000
     25989      8636  TIP3      H2             -1.7329863433        7.2417449214       33.7660770991  SOLV      8625            0.0000000000
     25990      8637  TIP3      OH2            -0.1974515573        6.9071119186       34.6338693533  SOLV      8626            0.0000000000
     25991      8637  TIP3      H1             -0.0475377097        5.9624562419       34.8458853702  SOLV      8626            0.0000000000
     25992      8637  TIP3      H2             -0.2271195230        7.3248542956       35.5202102047  SOLV      8626            0.0000000000
     25993      8638  TIP3      OH2           -10.6706502019        6.6665593075       36.0207292149  SOLV      8627            0.0000000000
     25994      8638  TIP3      H1            -10.5345354577        5.8511255499       35.5128612940  SOLV      8627            0.0000000000
     25995      8638  TIP3      H2            -10.1013006514        6.4829141355       36.8069474467  SOLV      8627            0.0000000000
     25996      8639  TIP3      OH2            -5.2981248294        3.1170634750       35.2168110873  SOLV      8628            0.0000000000
     25997      8639  TIP3      H1             -4.6000919718        2.4347286467       35.1541848657  SOLV      8628            0.0000000000
     25998      8639  TIP3      H2             -5.6179308440        3.1138176685       34.2901566482  SOLV      8628            0.0000000000
     25999      8640  TIP3      OH2            -4.3194983809        5.4533999142       36.4485456123  SOLV      8629            0.0000000000
     26000      8640  TIP3      H1             -4.5994991825        4.6137682611       36.0376120029  SOLV      8629            0.0000000000
     26001      8640  TIP3      H2             -5.1721906403        5.8873247556       36.6357211576  SOLV      8629            0.0000000000
     26002      8641  TIP3      OH2           -12.2579165604       17.5981898269       17.7329404968  SOLV      8630            0.0000000000
     26003      8641  TIP3      H1            -11.3132971136       17.4716951787       17.5229235402  SOLV      8630            0.0000000000
     26004      8641  TIP3      H2            -12.5349173591       18.0995707738       16.9429299881  SOLV      8630            0.0000000000
     26005      8642  TIP3      OH2           -17.4725902893       11.4339078611       19.8686689180  SOLV      8631            0.0000000000
     26006      8642  TIP3      H1            -16.5311341855       11.6421880143       19.6732967563  SOLV      8631            0.0000000000
     26007      8642  TIP3      H2            -17.5558140205       10.5531909656       19.4357452392  SOLV      8631            0.0000000000
     26008      8643  TIP3      OH2           -18.3431462570       17.4938406604       24.0330196151  SOLV      8632            0.0000000000
     26009      8643  TIP3      H1            -18.9740713958       16.8684763608       23.6168639806  SOLV      8632            0.0000000000
     26010      8643  TIP3      H2            -17.8902044851       16.8997644240       24.6703059645  SOLV      8632            0.0000000000
     26011      8644  TIP3      OH2           -17.0216877874       15.9663470089       25.9079989948  SOLV      8633            0.0000000000
     26012      8644  TIP3      H1            -17.1141211431       15.2508387918       26.5594965764  SOLV      8633            0.0000000000
     26013      8644  TIP3      H2            -16.4758577228       16.5924469548       26.4165379471  SOLV      8633            0.0000000000
     26014      8645  TIP3      OH2             0.3406638306       19.9249203692       23.9056664440  SOLV      8634            0.0000000000
     26015      8645  TIP3      H1              0.5483055572       20.3159299678       24.7742867942  SOLV      8634            0.0000000000
     26016      8645  TIP3      H2              0.9173679988       20.4304661646       23.3129541712  SOLV      8634            0.0000000000
     26017      8646  TIP3      OH2             0.5398897513       20.2004715713       26.7211509004  SOLV      8635            0.0000000000
     26018      8646  TIP3      H1              0.1171232930       19.3166966746       26.6783923106  SOLV      8635            0.0000000000
     26019      8646  TIP3      H2              1.3163293310       19.9890262745       27.2606894120  SOLV      8635            0.0000000000
     26020      8647  TIP3      OH2             1.0459332674       16.9838247877       32.4516658247  SOLV      8636            0.0000000000
     26021      8647  TIP3      H1              0.3136967514       17.0956288535       33.0906207874  SOLV      8636            0.0000000000
     26022      8647  TIP3      H2              1.4779690931       17.8611992659       32.4934861323  SOLV      8636            0.0000000000
     26023      8648  TIP3      OH2            -0.8021084194       12.1058379873       18.5933220238  SOLV      8637            0.0000000000
     26024      8648  TIP3      H1             -0.1627675220       12.7704788009       18.2657832152  SOLV      8637            0.0000000000
     26025      8648  TIP3      H2             -0.3304265603       11.7486762675       19.3749353596  SOLV      8637            0.0000000000
     26026      8649  TIP3      OH2             0.4579499922       10.8073840785       20.6816829766  SOLV      8638            0.0000000000
     26027      8649  TIP3      H1             -0.2594850699       10.3404137620       21.1700658449  SOLV      8638            0.0000000000
     26028      8649  TIP3      H2              0.9342747782       11.2449027973       21.4024427298  SOLV      8638            0.0000000000
     26029      8650  TIP3      OH2             1.1038573306       14.7318281794       24.9940582088  SOLV      8639            0.0000000000
     26030      8650  TIP3      H1              1.5181639421       14.0921485871       24.3946103714  SOLV      8639            0.0000000000
     26031      8650  TIP3      H2              1.0284920235       15.5224819385       24.4202428190  SOLV      8639            0.0000000000
     26032      8651  TIP3      OH2            -0.6946725745       17.6959458710       26.9229209407  SOLV      8640            0.0000000000
     26033      8651  TIP3      H1             -1.4085366644       18.1457321094       27.4170428100  SOLV      8640            0.0000000000
     26034      8651  TIP3      H2             -1.1906017759       17.2703289232       26.1903857320  SOLV      8640            0.0000000000
     26035      8652  TIP3      OH2            -0.1389079297        9.8735338456       17.1109621346  SOLV      8641            0.0000000000
     26036      8652  TIP3      H1             -0.8415263842        9.8503884352       16.4202425629  SOLV      8641            0.0000000000
     26037      8652  TIP3      H2             -0.4636577716       10.6368396597       17.6319368648  SOLV      8641            0.0000000000
     26038      8653  TIP3      OH2            -1.4140208182        6.5873104725       16.6598797135  SOLV      8642            0.0000000000
     26039      8653  TIP3      H1             -1.8699935151        6.9229212966       15.8792489435  SOLV      8642            0.0000000000
     26040      8653  TIP3      H2             -1.6380915601        5.6319289645       16.5966217925  SOLV      8642            0.0000000000
     26041      8654  TIP3      OH2            -1.3725987099        9.3664098267       22.0961651038  SOLV      8643            0.0000000000
     26042      8654  TIP3      H1             -1.3598316275        8.4016528625       21.9630436905  SOLV      8643            0.0000000000
     26043      8654  TIP3      H2             -1.5494493413        9.4426912647       23.0611901504  SOLV      8643            0.0000000000
     26044      8655  TIP3      OH2           -15.1555255862       10.0621571166       29.6201736774  SOLV      8644            0.0000000000
     26045      8655  TIP3      H1            -15.1881831894        9.7218641088       28.6983791064  SOLV      8644            0.0000000000
     26046      8655  TIP3      H2            -14.1802666103       10.0875696112       29.7629437838  SOLV      8644            0.0000000000
     26047      8656  TIP3      OH2             1.5212722174       13.6115938562       30.7072538448  SOLV      8645            0.0000000000
     26048      8656  TIP3      H1              2.2216401855       12.9333472448       30.5799868333  SOLV      8645            0.0000000000
     26049      8656  TIP3      H2              1.7725560420       14.2960087673       30.0656683279  SOLV      8645            0.0000000000
     26050      8657  TIP3      OH2             3.3328421446       11.5891540497       30.7096855356  SOLV      8646            0.0000000000
     26051      8657  TIP3      H1              2.5966948148       11.1012167230       31.1392577786  SOLV      8646            0.0000000000
     26052      8657  TIP3      H2              4.0743359075       10.9716717604       30.8961635313  SOLV      8646            0.0000000000
     26053      8658  TIP3      OH2            -2.0171798681        3.9369351385       16.5011522247  SOLV      8647            0.0000000000
     26054      8658  TIP3      H1             -1.3426972744        3.5521777360       17.0887790304  SOLV      8647            0.0000000000
     26055      8658  TIP3      H2             -2.7975861466        3.3677449548       16.6369995767  SOLV      8647            0.0000000000
     26056      8659  TIP3      OH2            -1.3733972389        6.5646180306       21.0341665580  SOLV      8648            0.0000000000
     26057      8659  TIP3      H1             -0.9935368916        5.6654544739       21.1830853880  SOLV      8648            0.0000000000
     26058      8659  TIP3      H2             -0.8189217976        6.8533767590       20.2873727608  SOLV      8648            0.0000000000
     26059      8660  TIP3      OH2             0.2401621864        8.1985418241       26.0429101470  SOLV      8649            0.0000000000
     26060      8660  TIP3      H1              1.1285795534        8.4132093167       25.6889176734  SOLV      8649            0.0000000000
     26061      8660  TIP3      H2              0.3161030905        8.6156241232       26.9250087774  SOLV      8649            0.0000000000
     26062      8661  TIP3      OH2             0.8863258774        9.6976497449       28.2994764048  SOLV      8650            0.0000000000
     26063      8661  TIP3      H1              0.1224102157       10.0220525343       28.8150451894  SOLV      8650            0.0000000000
     26064      8661  TIP3      H2              1.2062819894       10.5231563109       27.8767984973  SOLV      8650            0.0000000000
     26065      8662  TIP3      OH2           -13.3764890388        6.7516291979       36.2519924493  SOLV      8651            0.0000000000
     26066      8662  TIP3      H1            -12.3963592251        6.7628148764       36.1697380534  SOLV      8651            0.0000000000
     26067      8662  TIP3      H2            -13.4936874211        6.4831281887       37.1739454914  SOLV      8651            0.0000000000
     26068      8663  TIP3      OH2             5.3086324033        5.6095721482       33.8020158267  SOLV      8652            0.0000000000
     26069      8663  TIP3      H1              5.9892893649        4.9969571144       33.4508342625  SOLV      8652            0.0000000000
     26070      8663  TIP3      H2              5.0873094676        6.1488795128       33.0161534685  SOLV      8652            0.0000000000
     26071      8664  TIP3      OH2            -0.3471775501        4.0404361980       21.4338923826  SOLV      8653            0.0000000000
     26072      8664  TIP3      H1              0.1255333068        3.8549585261       22.2710216593  SOLV      8653            0.0000000000
     26073      8664  TIP3      H2             -0.9653648180        3.2800103235       21.4023014231  SOLV      8653            0.0000000000
     26074      8665  TIP3      OH2           -13.3191367165        3.8941360727       29.6928707375  SOLV      8654            0.0000000000
     26075      8665  TIP3      H1            -12.7190181287        3.1224491889       29.7198424259  SOLV      8654            0.0000000000
     26076      8665  TIP3      H2            -12.6836304754        4.6165534476       29.5448878406  SOLV      8654            0.0000000000
     26077      8666  TIP3      OH2           -15.3177768664        6.5785803177       30.3540701186  SOLV      8655            0.0000000000
     26078      8666  TIP3      H1            -14.8380573201        6.5483133661       29.5015145154  SOLV      8655            0.0000000000
     26079      8666  TIP3      H2            -15.0778290936        7.4537629129       30.6770005522  SOLV      8655            0.0000000000
     26080      8667  TIP3      OH2             4.0822270804        7.0065371630       31.8102335754  SOLV      8656            0.0000000000
     26081      8667  TIP3      H1              3.2513258146        7.4386073764       32.0897279275  SOLV      8656            0.0000000000
     26082      8667  TIP3      H2              3.7177887237        6.2480646092       31.3113744075  SOLV      8656            0.0000000000
     26083      8668  TIP3      OH2             0.4691429864        3.2972118178       17.8297616677  SOLV      8657            0.0000000000
     26084      8668  TIP3      H1              0.8165417459        2.6293509070       17.2008590196  SOLV      8657            0.0000000000
     26085      8668  TIP3      H2              1.1107664668        4.0269557613       17.7354378037  SOLV      8657            0.0000000000
     26086      8669  TIP3      OH2           -15.4695285084        1.7675900971       25.4287250409  SOLV      8658            0.0000000000
     26087      8669  TIP3      H1            -16.4067435717        1.5881746296       25.6106665271  SOLV      8658            0.0000000000
     26088      8669  TIP3      H2            -15.5251946623        2.2932716446       24.6021795724  SOLV      8658            0.0000000000
     26089      8670  TIP3      OH2            -3.8721108345       18.6915891012       20.4365417584  SOLV      8659            0.0000000000
     26090      8670  TIP3      H1             -3.3636322406       18.6016534499       19.6029701155  SOLV      8659            0.0000000000
     26091      8670  TIP3      H2             -3.3591753380       19.3655744752       20.9098170554  SOLV      8659            0.0000000000
     26092      8671  TIP3      OH2           -13.1426180058        2.3979165633       33.3061725132  SOLV      8660            0.0000000000
     26093      8671  TIP3      H1            -13.6650922793        2.3915985503       34.1353601393  SOLV      8660            0.0000000000
     26094      8671  TIP3      H2            -13.7877608416        2.8152976478       32.6983663165  SOLV      8660            0.0000000000
     26095      8672  TIP3      OH2           -12.8255273097       16.7688579799       34.3424928113  SOLV      8661            0.0000000000
     26096      8672  TIP3      H1            -13.7417082455       16.5074367738       34.1218867170  SOLV      8661            0.0000000000
     26097      8672  TIP3      H2            -12.7619021594       16.4610640347       35.2594966632  SOLV      8661            0.0000000000
     26098      8673  TIP3      OH2           -11.0521499522       17.1158972160       29.7802844336  SOLV      8662            0.0000000000
     26099      8673  TIP3      H1            -11.5317125757       17.8697992336       29.3765069729  SOLV      8662            0.0000000000
     26100      8673  TIP3      H2            -10.1972971421       17.2367639453       29.3178384110  SOLV      8662            0.0000000000
     26101      8674  TIP3      OH2            -6.6622510430       19.4738208886       31.1661682880  SOLV      8663            0.0000000000
     26102      8674  TIP3      H1             -6.2094308863       19.4697402560       32.0332119688  SOLV      8663            0.0000000000
     26103      8674  TIP3      H2             -6.0227519342       19.9890879257       30.6262141248  SOLV      8663            0.0000000000
     26104      8675  TIP3      OH2            -4.8976040363       21.0283056912       29.7728843287  SOLV      8664            0.0000000000
     26105      8675  TIP3      H1             -4.2136678324       20.5528071936       29.2804688677  SOLV      8664            0.0000000000
     26106      8675  TIP3      H2             -4.3426164112       21.5908619916       30.3576935615  SOLV      8664            0.0000000000
     26107      8676  TIP3      OH2             3.1015028387        4.5938146316       30.7201132589  SOLV      8665            0.0000000000
     26108      8676  TIP3      H1              2.2027530602        4.4544638513       30.3750958855  SOLV      8665            0.0000000000
     26109      8676  TIP3      H2              3.4687001395        3.6815903098       30.6509924579  SOLV      8665            0.0000000000
     26110      8677  TIP3      OH2           -14.3407231851       19.6276261537       30.0498848527  SOLV      8666            0.0000000000
     26111      8677  TIP3      H1            -15.2306440140       19.9676122088       29.8115679603  SOLV      8666            0.0000000000
     26112      8677  TIP3      H2            -14.1767233319       20.1575130248       30.8458637630  SOLV      8666            0.0000000000
     26113      8678  TIP3      OH2           -11.9693353723       19.4233100111       28.6124191999  SOLV      8667            0.0000000000
     26114      8678  TIP3      H1            -12.8533270006       19.5343365571       29.0272247531  SOLV      8667            0.0000000000
     26115      8678  TIP3      H2            -12.1452932054       19.7213572202       27.6971806630  SOLV      8667            0.0000000000
     26116      8679  TIP3      OH2            -7.7227811972       19.6506545110       26.5811402443  SOLV      8668            0.0000000000
     26117      8679  TIP3      H1             -8.4125964363       19.8154528621       25.9115359276  SOLV      8668            0.0000000000
     26118      8679  TIP3      H2             -7.6077434825       20.5434988974       26.9687342826  SOLV      8668            0.0000000000
     26119      8680  TIP3      OH2            -5.0189372531       19.0471080936       27.1227100092  SOLV      8669            0.0000000000
     26120      8680  TIP3      H1             -5.9509365329       19.2427160919       26.9009927282  SOLV      8669            0.0000000000
     26121      8680  TIP3      H2             -4.5521932532       19.7492394511       26.6368104154  SOLV      8669            0.0000000000
     26122      8681  TIP3      OH2            -3.0113243315       20.9362342940       26.1965957073  SOLV      8670            0.0000000000
     26123      8681  TIP3      H1             -3.1212089055       21.7954519511       25.7322179254  SOLV      8670            0.0000000000
     26124      8681  TIP3      H2             -2.7134679560       20.3559736774       25.4618101133  SOLV      8670            0.0000000000
     26125      8682  TIP3      OH2           -15.2347022798       17.5394580444       27.4535933962  SOLV      8671            0.0000000000
     26126      8682  TIP3      H1            -14.9514010426       17.2472822959       28.3466626142  SOLV      8671            0.0000000000
     26127      8682  TIP3      H2            -14.5188083223       17.1179740217       26.9239407899  SOLV      8671            0.0000000000
     26128      8683  TIP3      OH2           -13.2691860645       16.2930855752       26.0625689568  SOLV      8672            0.0000000000
     26129      8683  TIP3      H1            -13.1155489571       15.4491397893       26.5508397279  SOLV      8672            0.0000000000
     26130      8683  TIP3      H2            -12.3530670876       16.6338301443       25.9928363380  SOLV      8672            0.0000000000
     26131      8684  TIP3      OH2           -10.5793554585       17.1902861164       26.0894813117  SOLV      8673            0.0000000000
     26132      8684  TIP3      H1            -10.2938746735       16.2654762788       25.9641679643  SOLV      8673            0.0000000000
     26133      8684  TIP3      H2            -10.0886262206       17.4021312526       26.9063016567  SOLV      8673            0.0000000000
     26134      8685  TIP3      OH2            -4.8072464833        3.7833206886       27.0147235363  SOLV      8674            0.0000000000
     26135      8685  TIP3      H1             -5.2685192451        3.0573772251       27.4704328868  SOLV      8674            0.0000000000
     26136      8685  TIP3      H2             -4.1218862996        3.3119762638       26.5048714025  SOLV      8674            0.0000000000
     26137      8686  TIP3      OH2             0.3368266000        2.6198866204       25.9757749991  SOLV      8675            0.0000000000
     26138      8686  TIP3      H1              0.6891518154        3.1132672452       25.2023705626  SOLV      8675            0.0000000000
     26139      8686  TIP3      H2             -0.6240935012        2.7582206487       25.8788107458  SOLV      8675            0.0000000000
     26140      8687  TIP3      OH2             1.3107621240        3.5655330650       23.6022501498  SOLV      8676            0.0000000000
     26141      8687  TIP3      H1              2.0489495747        3.0475459951       23.2146483005  SOLV      8676            0.0000000000
     26142      8687  TIP3      H2              1.6382230275        4.4805647705       23.4461647114  SOLV      8676            0.0000000000
     26143      8688  TIP3      OH2           -12.3924266491        0.8484873399       27.0728538855  SOLV      8677            0.0000000000
     26144      8688  TIP3      H1            -13.3287570293        0.5536474030       27.0897151138  SOLV      8677            0.0000000000
     26145      8688  TIP3      H2            -11.9410566860       -0.0200362275       27.0055663270  SOLV      8677            0.0000000000
     26146      8689  TIP3      OH2           -14.3051111366       -0.4200785037       23.6402788527  SOLV      8678            0.0000000000
     26147      8689  TIP3      H1            -14.1535290815        0.0909342065       22.8250506845  SOLV      8678            0.0000000000
     26148      8689  TIP3      H2            -14.6998201434        0.2453389741       24.2291821989  SOLV      8678            0.0000000000
     26149      8690  TIP3      OH2            -7.8596095482        1.1230424657       25.8967936836  SOLV      8679            0.0000000000
     26150      8690  TIP3      H1             -7.3448805058        1.6029868938       25.2266345779  SOLV      8679            0.0000000000
     26151      8690  TIP3      H2             -7.6324818340        1.6027018407       26.7045326445  SOLV      8679            0.0000000000
     26152      8691  TIP3      OH2            -2.4872084524        2.6542216919       25.6887765269  SOLV      8680            0.0000000000
     26153      8691  TIP3      H1             -2.5002073614        2.2321587560       24.8192277413  SOLV      8680            0.0000000000
     26154      8691  TIP3      H2             -2.5946792374        1.8753438217       26.2848062432  SOLV      8680            0.0000000000
     26155      8692  TIP3      OH2            -2.1638931434        1.9152614767       21.3608700233  SOLV      8681            0.0000000000
     26156      8692  TIP3      H1             -3.0265337811        2.3439101425       21.5195163737  SOLV      8681            0.0000000000
     26157      8692  TIP3      H2             -2.3131670206        1.0445734348       21.7885675667  SOLV      8681            0.0000000000
     26158      8693  TIP3      OH2           -17.3545684134       15.3317069604       21.3060003994  SOLV      8682            0.0000000000
     26159      8693  TIP3      H1            -18.2032752722       14.9758576710       20.9834275062  SOLV      8682            0.0000000000
     26160      8693  TIP3      H2            -17.4500028631       16.2594349201       21.0226879646  SOLV      8682            0.0000000000
     26161      8694  TIP3      OH2           -13.3011859071        1.1108141729       21.1970956177  SOLV      8683            0.0000000000
     26162      8694  TIP3      H1            -12.8505544729        0.4878117221       20.5922051356  SOLV      8683            0.0000000000
     26163      8694  TIP3      H2            -12.5508786444        1.6415057599       21.5288404910  SOLV      8683            0.0000000000
     26164      8695  TIP3      OH2            -8.2396068960        2.9374897687       22.1713114724  SOLV      8684            0.0000000000
     26165      8695  TIP3      H1             -7.6411211274        2.4434599708       22.7544098862  SOLV      8684            0.0000000000
     26166      8695  TIP3      H2             -7.9946523437        3.8565593133       22.4200941832  SOLV      8684            0.0000000000
     26167      8696  TIP3      OH2            -9.6083112226       17.1031547834       17.1717823989  SOLV      8685            0.0000000000
     26168      8696  TIP3      H1             -8.7294452606       17.3369181149       16.8056947840  SOLV      8685            0.0000000000
     26169      8696  TIP3      H2             -9.8336922563       16.3638825595       16.5612746495  SOLV      8685            0.0000000000
     26170      8697  TIP3      OH2            -2.4036762564       18.3551517579       18.1225787587  SOLV      8686            0.0000000000
     26171      8697  TIP3      H1             -2.4708897281       17.3748330481       18.0254179350  SOLV      8686            0.0000000000
     26172      8697  TIP3      H2             -2.8755875398       18.6484908707       17.3161292411  SOLV      8686            0.0000000000
     26173      8698  TIP3      OH2           -10.2161651897        3.7185093522       35.6835176703  SOLV      8687            0.0000000000
     26174      8698  TIP3      H1            -10.4355231794        3.1155384125       36.4155189312  SOLV      8687            0.0000000000
     26175      8698  TIP3      H2             -9.2758646328        3.8692603452       35.9036237595  SOLV      8687            0.0000000000
     26176      8699  TIP3      OH2            -7.6072699242        3.6838461616       36.9855539095  SOLV      8688            0.0000000000
     26177      8699  TIP3      H1             -6.8547486701        3.5243979448       36.3843007343  SOLV      8688            0.0000000000
     26178      8699  TIP3      H2             -7.4699336024        2.9429382400       37.6139069669  SOLV      8688            0.0000000000
     26179      8700  TIP3      OH2           -16.5592476696       15.5209257923       17.7021507864  SOLV      8689            0.0000000000
     26180      8700  TIP3      H1            -16.5126136391       15.6399919069       18.6599608835  SOLV      8689            0.0000000000
     26181      8700  TIP3      H2            -15.7041624331       15.0653598725       17.5134764573  SOLV      8689            0.0000000000
     26182      8701  TIP3      OH2             0.5047237355        4.2312797582       35.0989018526  SOLV      8690            0.0000000000
     26183      8701  TIP3      H1              0.6768573291        3.9535772609       36.0203355017  SOLV      8690            0.0000000000
     26184      8701  TIP3      H2              1.4046221121        4.2046122730       34.7065514474  SOLV      8690            0.0000000000
     26185      8702  TIP3      OH2            -0.2016088754       19.7754020108       29.9745052112  SOLV      8691            0.0000000000
     26186      8702  TIP3      H1             -0.9725397709       19.4909161997       29.4411836742  SOLV      8691            0.0000000000
     26187      8702  TIP3      H2             -0.3721346217       20.7385825178       30.0259408375  SOLV      8691            0.0000000000
     26188      8703  TIP3      OH2            12.4935332471       13.5036234416       17.6122437741  SOLV      8692            0.0000000000
     26189      8703  TIP3      H1             12.1780577139       14.4066009304       17.3994141781  SOLV      8692            0.0000000000
     26190      8703  TIP3      H2             11.7613330475       12.9823999194       17.2359471078  SOLV      8692            0.0000000000
     26191      8704  TIP3      OH2            12.4795681739       13.5506051040       21.4985061099  SOLV      8693            0.0000000000
     26192      8704  TIP3      H1             12.8517027850       13.3095223222       22.3700006188  SOLV      8693            0.0000000000
     26193      8704  TIP3      H2             12.1367796822       12.6985381356       21.1870220870  SOLV      8693            0.0000000000
     26194      8705  TIP3      OH2             5.6972477401       12.0715491856       25.0066209558  SOLV      8694            0.0000000000
     26195      8705  TIP3      H1              5.6645891637       11.5819070998       25.8657137906  SOLV      8694            0.0000000000
     26196      8705  TIP3      H2              5.9209489704       12.9654460639       25.3261351751  SOLV      8694            0.0000000000
     26197      8706  TIP3      OH2            14.9715047550       16.5479488385       18.2981151219  SOLV      8695            0.0000000000
     26198      8706  TIP3      H1             14.8045953500       15.8842611658       18.9797768704  SOLV      8695            0.0000000000
     26199      8706  TIP3      H2             15.2850077816       17.3077688601       18.8180595698  SOLV      8695            0.0000000000
     26200      8707  TIP3      OH2             5.2287456660       16.5534911820       22.2963040521  SOLV      8696            0.0000000000
     26201      8707  TIP3      H1              5.1478762960       15.5803124599       22.3263797652  SOLV      8696            0.0000000000
     26202      8707  TIP3      H2              6.1938408215       16.6537525225       22.1820593194  SOLV      8696            0.0000000000
     26203      8708  TIP3      OH2             2.2326550306        8.6782898049       20.3018367647  SOLV      8697            0.0000000000
     26204      8708  TIP3      H1              1.6067663309        9.4265105081       20.3145402664  SOLV      8697            0.0000000000
     26205      8708  TIP3      H2              1.6932188446        8.0280949213       19.8162038262  SOLV      8697            0.0000000000
     26206      8709  TIP3      OH2             3.0145391946       11.3216460927       21.8888041457  SOLV      8698            0.0000000000
     26207      8709  TIP3      H1              3.1411708030       10.4491846435       21.4693427166  SOLV      8698            0.0000000000
     26208      8709  TIP3      H2              3.2630870087       11.9215847403       21.1702835270  SOLV      8698            0.0000000000
     26209      8710  TIP3      OH2            11.4836534000       21.1528993666       18.4669520575  SOLV      8699            0.0000000000
     26210      8710  TIP3      H1             11.8674868825       20.4452191553       17.9077333009  SOLV      8699            0.0000000000
     26211      8710  TIP3      H2             11.3863550939       20.6989842103       19.3121967321  SOLV      8699            0.0000000000
     26212      8711  TIP3      OH2            10.4643975442       15.7265815832       21.9817890883  SOLV      8700            0.0000000000
     26213      8711  TIP3      H1             10.9298281978       14.9952284729       21.5362775515  SOLV      8700            0.0000000000
     26214      8711  TIP3      H2             11.2563922018       16.2513816741       22.2320604873  SOLV      8700            0.0000000000
     26215      8712  TIP3      OH2            20.6178573852        8.9491706423       21.9393369510  SOLV      8701            0.0000000000
     26216      8712  TIP3      H1             20.9254794435        9.7952209476       22.3233888340  SOLV      8701            0.0000000000
     26217      8712  TIP3      H2             20.9252019930        9.0317369982       21.0133114501  SOLV      8701            0.0000000000
     26218      8713  TIP3      OH2            14.5435045836       10.7432220927       22.2292079844  SOLV      8702            0.0000000000
     26219      8713  TIP3      H1             15.0212508373        9.9168178848       22.4369758969  SOLV      8702            0.0000000000
     26220      8713  TIP3      H2             14.2590277874       10.5656879936       21.3123872167  SOLV      8702            0.0000000000
     26221      8714  TIP3      OH2             7.9422687984        7.5711408276       22.1031572785  SOLV      8703            0.0000000000
     26222      8714  TIP3      H1              7.7006156101        8.2150984621       21.4120936917  SOLV      8703            0.0000000000
     26223      8714  TIP3      H2              7.4258267948        6.8019378409       21.7915219699  SOLV      8703            0.0000000000
     26224      8715  TIP3      OH2            14.9704439167        8.3230684734       18.0858583726  SOLV      8704            0.0000000000
     26225      8715  TIP3      H1             15.6802977678        8.1677530392       18.7523312280  SOLV      8704            0.0000000000
     26226      8715  TIP3      H2             15.5096258237        8.6467439504       17.3391983699  SOLV      8704            0.0000000000
     26227      8716  TIP3      OH2             8.7736692770       11.2832107553       20.9042414476  SOLV      8705            0.0000000000
     26228      8716  TIP3      H1              9.7272006337       11.0487216434       20.9660943442  SOLV      8705            0.0000000000
     26229      8716  TIP3      H2              8.3958631696       10.4678985707       20.5010602875  SOLV      8705            0.0000000000
     26230      8717  TIP3      OH2            21.3593714925       11.0586960798       23.6211026492  SOLV      8706            0.0000000000
     26231      8717  TIP3      H1             20.5012850913       11.5068509772       23.4777319254  SOLV      8706            0.0000000000
     26232      8717  TIP3      H2             21.6342926304       11.4385212906       24.4763139090  SOLV      8706            0.0000000000
     26233      8718  TIP3      OH2             7.9155526124        7.3051725395       26.1499225341  SOLV      8707            0.0000000000
     26234      8718  TIP3      H1              7.1604103023        6.9207133491       25.6912976231  SOLV      8707            0.0000000000
     26235      8718  TIP3      H2              7.5092009086        7.5343475769       27.0131561987  SOLV      8707            0.0000000000
     26236      8719  TIP3      OH2            11.3144012480       15.6750360309       16.3255962396  SOLV      8708            0.0000000000
     26237      8719  TIP3      H1             10.9922294642       15.6127598042       15.4139852348  SOLV      8708            0.0000000000
     26238      8719  TIP3      H2             10.8937660460       16.5103308226       16.6165053464  SOLV      8708            0.0000000000
     26239      8720  TIP3      OH2             8.8926431944       14.8338634108       24.0639150606  SOLV      8709            0.0000000000
     26240      8720  TIP3      H1              8.3758190102       15.5702084459       24.4621363599  SOLV      8709            0.0000000000
     26241      8720  TIP3      H2              9.3809144496       15.3058752186       23.3527673903  SOLV      8709            0.0000000000
     26242      8721  TIP3      OH2            16.9904019433        8.3579329035       19.8957541850  SOLV      8710            0.0000000000
     26243      8721  TIP3      H1             16.8423732629        7.9402864844       20.7533318937  SOLV      8710            0.0000000000
     26244      8721  TIP3      H2             17.5130659697        9.1463034309       20.1453581849  SOLV      8710            0.0000000000
     26245      8722  TIP3      OH2             7.3393081461       16.9230101966       25.1456252467  SOLV      8711            0.0000000000
     26246      8722  TIP3      H1              7.1057648242       17.8025671325       24.7819392433  SOLV      8711            0.0000000000
     26247      8722  TIP3      H2              6.5431614843       16.7729493366       25.7019313419  SOLV      8711            0.0000000000
     26248      8723  TIP3      OH2             1.1974039882       13.8191923200       17.5157288766  SOLV      8712            0.0000000000
     26249      8723  TIP3      H1              0.8029249648       14.0692005607       16.6576878080  SOLV      8712            0.0000000000
     26250      8723  TIP3      H2              1.5103093156       14.6897777845       17.8438346521  SOLV      8712            0.0000000000
     26251      8724  TIP3      OH2            15.5985436427       18.9967652779       19.8982969697  SOLV      8713            0.0000000000
     26252      8724  TIP3      H1             14.7035232451       18.8965401401       20.2968738512  SOLV      8713            0.0000000000
     26253      8724  TIP3      H2             15.4977301805       19.8511083919       19.4324267858  SOLV      8713            0.0000000000
     26254      8725  TIP3      OH2            18.5595217814        7.9126273210       23.5405417641  SOLV      8714            0.0000000000
     26255      8725  TIP3      H1             17.7055448251        8.2210161168       23.1998038588  SOLV      8714            0.0000000000
     26256      8725  TIP3      H2             19.1923492167        8.2678374866       22.8774869211  SOLV      8714            0.0000000000
     26257      8726  TIP3      OH2            11.4687029710        4.3245989713       23.3820233191  SOLV      8715            0.0000000000
     26258      8726  TIP3      H1             11.3311186809        3.3780873101       23.5822225333  SOLV      8715            0.0000000000
     26259      8726  TIP3      H2             10.7058610723        4.7142756778       23.8635146864  SOLV      8715            0.0000000000
     26260      8727  TIP3      OH2            12.5874174381       19.4066920854       16.6135226532  SOLV      8716            0.0000000000
     26261      8727  TIP3      H1             13.0840101707       18.5721778491       16.4349537636  SOLV      8716            0.0000000000
     26262      8727  TIP3      H2             13.2258365178       20.0481879868       16.2236930220  SOLV      8716            0.0000000000
     26263      8728  TIP3      OH2            14.0381609151       17.2547609991       15.7957519669  SOLV      8717            0.0000000000
     26264      8728  TIP3      H1             13.8097484613       16.4432163104       15.3237794912  SOLV      8717            0.0000000000
     26265      8728  TIP3      H2             14.4233041430       16.9048818855       16.6298141634  SOLV      8717            0.0000000000
     26266      8729  TIP3      OH2            17.5481511604       18.1360997404       23.2070373383  SOLV      8718            0.0000000000
     26267      8729  TIP3      H1             17.5077789235       17.3543043157       22.6133454556  SOLV      8718            0.0000000000
     26268      8729  TIP3      H2             17.5302645437       18.8802290501       22.5731834828  SOLV      8718            0.0000000000
     26269      8730  TIP3      OH2            10.8169066785       12.0348422244       15.9689264536  SOLV      8719            0.0000000000
     26270      8730  TIP3      H1             10.0285504043       12.5798113119       15.7651634727  SOLV      8719            0.0000000000
     26271      8730  TIP3      H2             11.2609157451       11.9968645454       15.1024484311  SOLV      8719            0.0000000000
     26272      8731  TIP3      OH2            10.3896008481        9.8942558738       13.0639269374  SOLV      8720            0.0000000000
     26273      8731  TIP3      H1             11.0493329475       10.4387651612       13.5305827951  SOLV      8720            0.0000000000
     26274      8731  TIP3      H2             10.9814683293        9.2705468956       12.5932040158  SOLV      8720            0.0000000000
     26275      8732  TIP3      OH2            19.8529690543       14.4922383799       21.8263898050  SOLV      8721            0.0000000000
     26276      8732  TIP3      H1             19.0032763844       14.9807047838       21.8886256312  SOLV      8721            0.0000000000
     26277      8732  TIP3      H2             20.1143302360       14.7253521529       20.9069912916  SOLV      8721            0.0000000000
     26278      8733  TIP3      OH2            14.2871998660       12.8551586919       15.6376697184  SOLV      8722            0.0000000000
     26279      8733  TIP3      H1             13.7480722583       13.0864944003       16.4292762666  SOLV      8722            0.0000000000
     26280      8733  TIP3      H2             15.1411951390       12.6297652793       16.0628438970  SOLV      8722            0.0000000000
     26281      8734  TIP3      OH2            16.5914841359       13.1144311294       24.8030296489  SOLV      8723            0.0000000000
     26282      8734  TIP3      H1             16.6069951771       13.8975854122       25.3968606925  SOLV      8723            0.0000000000
     26283      8734  TIP3      H2             15.7565890812       13.2736573970       24.3262434785  SOLV      8723            0.0000000000
     26284      8735  TIP3      OH2             6.5779761185       12.7753878901       19.8915150052  SOLV      8724            0.0000000000
     26285      8735  TIP3      H1              6.1318855318       12.2365037192       19.1991142744  SOLV      8724            0.0000000000
     26286      8735  TIP3      H2              7.3640646143       12.2292482594       20.0895431146  SOLV      8724            0.0000000000
     26287      8736  TIP3      OH2             7.8715701037       16.8568172479       21.3152971217  SOLV      8725            0.0000000000
     26288      8736  TIP3      H1              7.7257388851       16.6588585221       20.3752443102  SOLV      8725            0.0000000000
     26289      8736  TIP3      H2              8.7722452493       16.5051797719       21.4678671792  SOLV      8725            0.0000000000
     26290      8737  TIP3      OH2             8.0012676893       12.4067445463       23.2095899127  SOLV      8726            0.0000000000
     26291      8737  TIP3      H1              8.4282719227       12.2097649597       22.3409246852  SOLV      8726            0.0000000000
     26292      8737  TIP3      H2              8.4272954709       13.2576839232       23.4584365464  SOLV      8726            0.0000000000
     26293      8738  TIP3      OH2            13.2099601815       18.9060974510       21.1432109881  SOLV      8727            0.0000000000
     26294      8738  TIP3      H1             13.0727824929       19.7294642768       21.6470980508  SOLV      8727            0.0000000000
     26295      8738  TIP3      H2             13.0400692044       18.2048490467       21.8018534445  SOLV      8727            0.0000000000
     26296      8739  TIP3      OH2             9.3527031412       18.1017216764       26.6302658248  SOLV      8728            0.0000000000
     26297      8739  TIP3      H1              8.7156845528       18.7062300014       27.0717170640  SOLV      8728            0.0000000000
     26298      8739  TIP3      H2              8.7320891213       17.5665546807       26.0938210468  SOLV      8728            0.0000000000
     26299      8740  TIP3      OH2            12.6464142344       11.4460089399       13.9168783267  SOLV      8729            0.0000000000
     26300      8740  TIP3      H1             13.2437808329       12.0580896338       14.4021426673  SOLV      8729            0.0000000000
     26301      8740  TIP3      H2             12.9207766404       11.6292599484       12.9833989621  SOLV      8729            0.0000000000
     26302      8741  TIP3      OH2             6.8092707440       13.6525961698       27.5062939646  SOLV      8730            0.0000000000
     26303      8741  TIP3      H1              6.9317176744       14.5200633791       27.9445016867  SOLV      8730            0.0000000000
     26304      8741  TIP3      H2              5.9386639959       13.4026185761       27.8828223617  SOLV      8730            0.0000000000
     26305      8742  TIP3      OH2            10.1332169334       18.1973064077       16.7082553068  SOLV      8731            0.0000000000
     26306      8742  TIP3      H1             10.9775841805       18.6919328324       16.7292779223  SOLV      8731            0.0000000000
     26307      8742  TIP3      H2              9.5555163577       18.8011145311       16.2238543464  SOLV      8731            0.0000000000
     26308      8743  TIP3      OH2             7.3022611828       19.7443403970       27.5062954984  SOLV      8732            0.0000000000
     26309      8743  TIP3      H1              6.9417413654       19.8358567722       26.6042226475  SOLV      8732            0.0000000000
     26310      8743  TIP3      H2              6.4938646738       19.5325049111       28.0267892125  SOLV      8732            0.0000000000
     26311      8744  TIP3      OH2            17.8445456311        3.8047095209       14.4242812409  SOLV      8733            0.0000000000
     26312      8744  TIP3      H1             17.0240112809        4.0417200369       14.9035546611  SOLV      8733            0.0000000000
     26313      8744  TIP3      H2             18.0077035998        4.6266046017       13.9144475643  SOLV      8733            0.0000000000
     26314      8745  TIP3      OH2             5.2134196573       11.2866919299       17.9565161917  SOLV      8734            0.0000000000
     26315      8745  TIP3      H1              4.5541752980       11.7091195587       17.3646718559  SOLV      8734            0.0000000000
     26316      8745  TIP3      H2              4.9463371527       10.3610798607       17.9173767043  SOLV      8734            0.0000000000
     26317      8746  TIP3      OH2            15.8598058918       17.4818564947        9.9138026015  SOLV      8735            0.0000000000
     26318      8746  TIP3      H1             15.9562263283       18.4429300444        9.7397068183  SOLV      8735            0.0000000000
     26319      8746  TIP3      H2             16.7889715658       17.1772066844        9.8186021856  SOLV      8735            0.0000000000
     26320      8747  TIP3      OH2             3.0710539329       15.0878971491       26.9612428922  SOLV      8736            0.0000000000
     26321      8747  TIP3      H1              2.3596369776       14.9141449608       26.3071834539  SOLV      8736            0.0000000000
     26322      8747  TIP3      H2              3.3780007822       14.1919445880       27.2013956698  SOLV      8736            0.0000000000
     26323      8748  TIP3      OH2             1.6285082755       17.0225327923       23.3169645317  SOLV      8737            0.0000000000
     26324      8748  TIP3      H1              2.5906043623       17.0714869231       23.2261035811  SOLV      8737            0.0000000000
     26325      8748  TIP3      H2              1.4449133915       17.8406095959       23.8061608579  SOLV      8737            0.0000000000
     26326      8749  TIP3      OH2            11.3450104248       19.3384653292       25.2317691908  SOLV      8738            0.0000000000
     26327      8749  TIP3      H1             11.2500937876       20.2875155727       25.4683318346  SOLV      8738            0.0000000000
     26328      8749  TIP3      H2             10.6058808803       18.9437151262       25.7469722020  SOLV      8738            0.0000000000
     26329      8750  TIP3      OH2             8.9813396618       20.6422036367       14.7217106770  SOLV      8739            0.0000000000
     26330      8750  TIP3      H1              8.5060863121       20.4874570841       13.8861414133  SOLV      8739            0.0000000000
     26331      8750  TIP3      H2              8.6321788146       21.5081501755       15.0053457094  SOLV      8739            0.0000000000
     26332      8751  TIP3      OH2             3.3219263645       19.1503942629       18.5715845371  SOLV      8740            0.0000000000
     26333      8751  TIP3      H1              3.7907528794       19.0719078793       19.4314801732  SOLV      8740            0.0000000000
     26334      8751  TIP3      H2              2.7985130494       18.3315764121       18.5690172425  SOLV      8740            0.0000000000
     26335      8752  TIP3      OH2            10.9398309194       19.6996526628       11.0690177027  SOLV      8741            0.0000000000
     26336      8752  TIP3      H1             11.5269213019       18.9958931786       10.7144294578  SOLV      8741            0.0000000000
     26337      8752  TIP3      H2             11.2964894380       19.8107580035       11.9758924996  SOLV      8741            0.0000000000
     26338      8753  TIP3      OH2            11.4747501614       20.1895398461       13.7529819544  SOLV      8742            0.0000000000
     26339      8753  TIP3      H1             10.5943167573       20.2786648278       14.1814566512  SOLV      8742            0.0000000000
     26340      8753  TIP3      H2             12.0064809534       19.8410466650       14.4867969109  SOLV      8742            0.0000000000
     26341      8754  TIP3      OH2            19.2619677994       12.8069723610       26.1612263250  SOLV      8743            0.0000000000
     26342      8754  TIP3      H1             18.3239047955       12.8702743303       25.9376569961  SOLV      8743            0.0000000000
     26343      8754  TIP3      H2             19.3599990160       11.8548698592       26.3577923979  SOLV      8743            0.0000000000
     26344      8755  TIP3      OH2             5.1371804522       16.8972050375       26.7682308462  SOLV      8744            0.0000000000
     26345      8755  TIP3      H1              5.6059892881       16.7770716829       27.6172930069  SOLV      8744            0.0000000000
     26346      8755  TIP3      H2              4.3733449095       16.2925889324       26.8714326913  SOLV      8744            0.0000000000
     26347      8756  TIP3      OH2             9.1462569368        5.1194833657       24.6942847424  SOLV      8745            0.0000000000
     26348      8756  TIP3      H1              8.2581180122        4.8354607929       24.3949860499  SOLV      8745            0.0000000000
     26349      8756  TIP3      H2              8.9383303354        5.9985843239       25.0553597388  SOLV      8745            0.0000000000
     26350      8757  TIP3      OH2            14.5020786739        6.2865903605       26.6415747982  SOLV      8746            0.0000000000
     26351      8757  TIP3      H1             15.2101401706        6.0097907575       27.2619120915  SOLV      8746            0.0000000000
     26352      8757  TIP3      H2             13.6864920102        6.0844886084       27.1419938544  SOLV      8746            0.0000000000
     26353      8758  TIP3      OH2            16.7631189369       10.5346398793       25.7853537979  SOLV      8747            0.0000000000
     26354      8758  TIP3      H1             16.2900389961       10.5588766618       26.6480004821  SOLV      8747            0.0000000000
     26355      8758  TIP3      H2             16.5890382547       11.4270457770       25.4222472780  SOLV      8747            0.0000000000
     26356      8759  TIP3      OH2            13.4591229704       11.8235129762       11.3812773359  SOLV      8748            0.0000000000
     26357      8759  TIP3      H1             13.0806828475       11.6352197195       10.5009974067  SOLV      8748            0.0000000000
     26358      8759  TIP3      H2             14.2958040897       12.2624217526       11.1293675085  SOLV      8748            0.0000000000
     26359      8760  TIP3      OH2            10.5677408995        5.6016986471       14.4152001273  SOLV      8749            0.0000000000
     26360      8760  TIP3      H1             10.1930661202        5.5610532669       15.3172747868  SOLV      8749            0.0000000000
     26361      8760  TIP3      H2             10.1516521248        4.8042885562       14.0317493258  SOLV      8749            0.0000000000
     26362      8761  TIP3      OH2             7.2966600852        9.1985274298       19.9787806594  SOLV      8750            0.0000000000
     26363      8761  TIP3      H1              6.3706638183        8.9216242496       20.1700717065  SOLV      8750            0.0000000000
     26364      8761  TIP3      H2              7.4184106704        8.7587831005       19.1059473876  SOLV      8750            0.0000000000
     26365      8762  TIP3      OH2            12.1816623648       10.0234298583       17.3121768274  SOLV      8751            0.0000000000
     26366      8762  TIP3      H1             11.6867444518       10.7356449764       16.8518296406  SOLV      8751            0.0000000000
     26367      8762  TIP3      H2             12.7346682826        9.6695964580       16.5852576200  SOLV      8751            0.0000000000
     26368      8763  TIP3      OH2            13.8891215906       12.7602556467       28.0889460217  SOLV      8752            0.0000000000
     26369      8763  TIP3      H1             13.7181633261       12.0454184506       28.7431431977  SOLV      8752            0.0000000000
     26370      8763  TIP3      H2             14.8124429433       12.9801338147       28.2973261793  SOLV      8752            0.0000000000
     26371      8764  TIP3      OH2            13.6981391924       10.2747161946       19.6550664875  SOLV      8753            0.0000000000
     26372      8764  TIP3      H1             13.0936518229       10.5501002559       18.9339290351  SOLV      8753            0.0000000000
     26373      8764  TIP3      H2             14.0863423811        9.4922828985       19.2068799355  SOLV      8753            0.0000000000
     26374      8765  TIP3      OH2             6.5656668674       10.4337517435       26.9213819937  SOLV      8754            0.0000000000
     26375      8765  TIP3      H1              7.1417008129       10.9869234853       27.4740140589  SOLV      8754            0.0000000000
     26376      8765  TIP3      H2              6.4761744581        9.6337245889       27.4776604342  SOLV      8754            0.0000000000
     26377      8766  TIP3      OH2             7.1515959902        5.3870278329       14.0503853272  SOLV      8755            0.0000000000
     26378      8766  TIP3      H1              7.0151818583        5.3812571483       15.0181250210  SOLV      8755            0.0000000000
     26379      8766  TIP3      H2              6.3737560306        5.9066087945       13.7620775466  SOLV      8755            0.0000000000
     26380      8767  TIP3      OH2             2.5105398998        5.8387707500       22.7471099445  SOLV      8756            0.0000000000
     26381      8767  TIP3      H1              3.3508587693        6.1230254691       23.1607727719  SOLV      8756            0.0000000000
     26382      8767  TIP3      H2              2.7900699317        5.4625962300       21.8926788397  SOLV      8756            0.0000000000
     26383      8768  TIP3      OH2             2.1999512198        5.6018944575       17.9710736042  SOLV      8757            0.0000000000
     26384      8768  TIP3      H1              2.6527484954        5.9481611852       17.1714029506  SOLV      8757            0.0000000000
     26385      8768  TIP3      H2              1.5728439126        6.3351699545       18.1199909871  SOLV      8757            0.0000000000
     26386      8769  TIP3      OH2            13.7257661459       12.7201483596       23.8562676491  SOLV      8758            0.0000000000
     26387      8769  TIP3      H1             14.1070522779       12.0249782932       23.2697268555  SOLV      8758            0.0000000000
     26388      8769  TIP3      H2             13.5053118303       12.1725178950       24.6387338286  SOLV      8758            0.0000000000
     26389      8770  TIP3      OH2            10.5985201913        7.4156651797       20.6213564966  SOLV      8759            0.0000000000
     26390      8770  TIP3      H1              9.8148464723        7.4202932519       21.2008623918  SOLV      8759            0.0000000000
     26391      8770  TIP3      H2             11.3273093779        7.2615258928       21.2495088470  SOLV      8759            0.0000000000
     26392      8771  TIP3      OH2             4.9226663353        8.1203402408       20.6711797827  SOLV      8760            0.0000000000
     26393      8771  TIP3      H1              3.9506465312        8.1686686512       20.5564414169  SOLV      8760            0.0000000000
     26394      8771  TIP3      H2              5.1028020204        7.1664502399       20.6144037155  SOLV      8760            0.0000000000
     26395      8772  TIP3      OH2             7.5395431208        7.9111302955       17.5876460052  SOLV      8761            0.0000000000
     26396      8772  TIP3      H1              8.4754807417        8.0466838705       17.3478586714  SOLV      8761            0.0000000000
     26397      8772  TIP3      H2              7.0606191361        8.1175999810       16.7507726032  SOLV      8761            0.0000000000
     26398      8773  TIP3      OH2            15.4834540074        8.1671762195       22.6511633206  SOLV      8762            0.0000000000
     26399      8773  TIP3      H1             15.1654564130        8.2832437539       23.5743480001  SOLV      8762            0.0000000000
     26400      8773  TIP3      H2             14.8234646779        7.5447763929       22.3072320457  SOLV      8762            0.0000000000
     26401      8774  TIP3      OH2             6.0619334856        8.2813467668       15.3512514265  SOLV      8763            0.0000000000
     26402      8774  TIP3      H1              5.3728645346        7.7948086225       14.8632498910  SOLV      8763            0.0000000000
     26403      8774  TIP3      H2              6.5814951989        8.6482320539       14.6049680638  SOLV      8763            0.0000000000
     26404      8775  TIP3      OH2             6.7817488544       16.1090349145       29.0141929473  SOLV      8764            0.0000000000
     26405      8775  TIP3      H1              7.5737441126       16.3956035248       29.5129566330  SOLV      8764            0.0000000000
     26406      8775  TIP3      H2              6.1252785990       16.0965510753       29.7381278827  SOLV      8764            0.0000000000
     26407      8776  TIP3      OH2            11.4029889678       10.6996969138       21.5296935035  SOLV      8765            0.0000000000
     26408      8776  TIP3      H1             12.1250832929       10.3516524926       20.9799440657  SOLV      8765            0.0000000000
     26409      8776  TIP3      H2             11.5256226667       10.2175931713       22.3628587230  SOLV      8765            0.0000000000
     26410      8777  TIP3      OH2             6.6110394340        5.6208612668       20.5753045777  SOLV      8766            0.0000000000
     26411      8777  TIP3      H1              6.2474813180        4.8235768968       21.0150592111  SOLV      8766            0.0000000000
     26412      8777  TIP3      H2              7.0350515440        5.2382877460       19.7960146645  SOLV      8766            0.0000000000
     26413      8778  TIP3      OH2            11.1092307392        9.8508916852       24.6753914995  SOLV      8767            0.0000000000
     26414      8778  TIP3      H1             10.6452803222       10.6844167025       24.8115874103  SOLV      8767            0.0000000000
     26415      8778  TIP3      H2             11.9953072520       10.1037602997       25.0088664774  SOLV      8767            0.0000000000
     26416      8779  TIP3      OH2             8.4941490373       13.5413301783       15.4410349776  SOLV      8768            0.0000000000
     26417      8779  TIP3      H1              7.7770576280       12.8836692159       15.3111040696  SOLV      8768            0.0000000000
     26418      8779  TIP3      H2              8.2770550886       13.8770320564       16.3450795990  SOLV      8768            0.0000000000
     26419      8780  TIP3      OH2            17.4870724791       15.8721610182       21.6600061353  SOLV      8769            0.0000000000
     26420      8780  TIP3      H1             17.7417944402       16.3795227295       20.8582062019  SOLV      8769            0.0000000000
     26421      8780  TIP3      H2             16.6461842181       15.4459419482       21.3831639118  SOLV      8769            0.0000000000
     26422      8781  TIP3      OH2            13.0833889679        6.6125987803       14.1694443654  SOLV      8770            0.0000000000
     26423      8781  TIP3      H1             12.1176239331        6.4162276381       14.2155627724  SOLV      8770            0.0000000000
     26424      8781  TIP3      H2             13.1287480203        7.5683924802       14.3696012015  SOLV      8770            0.0000000000
     26425      8782  TIP3      OH2            12.3812800837       16.6690974930       25.4379861417  SOLV      8771            0.0000000000
     26426      8782  TIP3      H1             12.8643667418       16.5756672460       26.2701790089  SOLV      8771            0.0000000000
     26427      8782  TIP3      H2             12.0825951555       17.5953969980       25.4594365271  SOLV      8771            0.0000000000
     26428      8783  TIP3      OH2            13.7471328403        9.1712633971       15.1480107903  SOLV      8772            0.0000000000
     26429      8783  TIP3      H1             14.7133595117        9.2330758791       15.2764871861  SOLV      8772            0.0000000000
     26430      8783  TIP3      H2             13.5501365559        9.9715648132       14.6224065416  SOLV      8772            0.0000000000
     26431      8784  TIP3      OH2             5.4947709671       13.7564470144       22.2238430255  SOLV      8773            0.0000000000
     26432      8784  TIP3      H1              5.6833525147       13.5108338935       21.2929878553  SOLV      8773            0.0000000000
     26433      8784  TIP3      H2              6.3048885937       13.4514452302       22.6508312137  SOLV      8773            0.0000000000
     26434      8785  TIP3      OH2             9.9666272702       15.0439678858       13.6881718035  SOLV      8774            0.0000000000
     26435      8785  TIP3      H1              9.4699053083       15.8962383578       13.6991255890  SOLV      8774            0.0000000000
     26436      8785  TIP3      H2              9.4238280867       14.5031233545       14.3018837645  SOLV      8774            0.0000000000
     26437      8786  TIP3      OH2             4.2643537507       12.9141987931       28.3176891770  SOLV      8775            0.0000000000
     26438      8786  TIP3      H1              4.4665711764       12.8366144523       29.2731061924  SOLV      8775            0.0000000000
     26439      8786  TIP3      H2              3.5590068560       12.2509628282       28.2305174809  SOLV      8775            0.0000000000
     26440      8787  TIP3      OH2            11.5508962174       14.1889586203       28.4524258574  SOLV      8776            0.0000000000
     26441      8787  TIP3      H1             10.9727227883       13.5055412680       28.0895434950  SOLV      8776            0.0000000000
     26442      8787  TIP3      H2             12.4356475481       13.8274628807       28.2218260188  SOLV      8776            0.0000000000
     26443      8788  TIP3      OH2            14.0410356733       19.3122116855       24.4132488413  SOLV      8777            0.0000000000
     26444      8788  TIP3      H1             13.0795938353       19.3374868021       24.5706694623  SOLV      8777            0.0000000000
     26445      8788  TIP3      H2             14.3685498940       19.8919917710       25.1289748076  SOLV      8777            0.0000000000
     26446      8789  TIP3      OH2            18.1550143628       10.1035933244       13.4719471921  SOLV      8778            0.0000000000
     26447      8789  TIP3      H1             17.5477721633        9.6699574569       12.8252493498  SOLV      8778            0.0000000000
     26448      8789  TIP3      H2             18.1307627199       11.0043125103       13.0789629282  SOLV      8778            0.0000000000
     26449      8790  TIP3      OH2            20.0495098781       18.1885664332       24.1966093726  SOLV      8779            0.0000000000
     26450      8790  TIP3      H1             19.1134264205       18.2935226241       23.9247459375  SOLV      8779            0.0000000000
     26451      8790  TIP3      H2             20.4800558611       18.1013801612       23.3164201804  SOLV      8779            0.0000000000
     26452      8791  TIP3      OH2            15.1819277416       18.2662940206       12.5397851527  SOLV      8780            0.0000000000
     26453      8791  TIP3      H1             14.9514249935       17.5472579994       13.1426770336  SOLV      8780            0.0000000000
     26454      8791  TIP3      H2             15.3504879009       17.8024793093       11.6991243797  SOLV      8780            0.0000000000
     26455      8792  TIP3      OH2            15.1436405860       14.5522220439       20.8534415280  SOLV      8781            0.0000000000
     26456      8792  TIP3      H1             14.2022679605       14.3290828896       20.9787871809  SOLV      8781            0.0000000000
     26457      8792  TIP3      H2             15.4675813880       13.7377652541       20.4175313546  SOLV      8781            0.0000000000
     26458      8793  TIP3      OH2             6.4838376345       16.8579055809       18.4835198101  SOLV      8782            0.0000000000
     26459      8793  TIP3      H1              6.4612337835       17.6509280415       17.9115195345  SOLV      8782            0.0000000000
     26460      8793  TIP3      H2              5.5439562040       16.6566083775       18.5510627165  SOLV      8782            0.0000000000
     26461      8794  TIP3      OH2             2.1355834894        9.8410927811       15.5470900508  SOLV      8783            0.0000000000
     26462      8794  TIP3      H1              2.5448175806       10.7095516917       15.7405051891  SOLV      8783            0.0000000000
     26463      8794  TIP3      H2              1.3409063636        9.8767724416       16.1247637448  SOLV      8783            0.0000000000
     26464      8795  TIP3      OH2             7.7153329626       14.4316670511       17.8680154481  SOLV      8784            0.0000000000
     26465      8795  TIP3      H1              7.4279890219       15.3479870218       18.0488776303  SOLV      8784            0.0000000000
     26466      8795  TIP3      H2              7.3623523650       13.9552223469       18.6382309217  SOLV      8784            0.0000000000
     26467      8796  TIP3      OH2             9.1525595583       20.2469042561       23.1036365079  SOLV      8785            0.0000000000
     26468      8796  TIP3      H1              9.5546960187       20.9902044334       22.6046951950  SOLV      8785            0.0000000000
     26469      8796  TIP3      H2              9.9329056955       19.8702077554       23.5370159964  SOLV      8785            0.0000000000
     26470      8797  TIP3      OH2             5.6328353708       19.2048011738       16.9655776759  SOLV      8786            0.0000000000
     26471      8797  TIP3      H1              4.7770336316       19.3163508268       17.4248429080  SOLV      8786            0.0000000000
     26472      8797  TIP3      H2              5.9723451818       20.1283345177       16.9865170938  SOLV      8786            0.0000000000
     26473      8798  TIP3      OH2            12.9613773040       16.5954538951       22.7538301683  SOLV      8787            0.0000000000
     26474      8798  TIP3      H1             12.8543137755       16.5387633522       23.7286255870  SOLV      8787            0.0000000000
     26475      8798  TIP3      H2             13.7831573039       16.1028592709       22.6209803658  SOLV      8787            0.0000000000
     26476      8799  TIP3      OH2            12.8074488040       15.5571032709       11.5717651582  SOLV      8788            0.0000000000
     26477      8799  TIP3      H1             13.3272516709       15.3047563509       12.3688838957  SOLV      8788            0.0000000000
     26478      8799  TIP3      H2             11.9234766927       15.2541886689       11.8287144196  SOLV      8788            0.0000000000
     26479      8800  TIP3      OH2            15.1804320675       22.0390785005       23.4038893263  SOLV      8789            0.0000000000
     26480      8800  TIP3      H1             14.4893550084       21.3892720019       23.1793948647  SOLV      8789            0.0000000000
     26481      8800  TIP3      H2             15.2026268893       22.5810333712       22.5889940369  SOLV      8789            0.0000000000
     26482      8801  TIP3      OH2            16.1548488318       20.2465995444        9.7274642168  SOLV      8790            0.0000000000
     26483      8801  TIP3      H1             16.5234143317       21.0015920443        9.2405377925  SOLV      8790            0.0000000000
     26484      8801  TIP3      H2             15.3468672447       20.6686283819       10.0859963101  SOLV      8790            0.0000000000
     26485      8802  TIP3      OH2             6.3465426651        7.9742543884       28.3643786094  SOLV      8791            0.0000000000
     26486      8802  TIP3      H1              5.3914157214        8.0268146395       28.5591487433  SOLV      8791            0.0000000000
     26487      8802  TIP3      H2              6.6700575460        7.4755409997       29.1361173225  SOLV      8791            0.0000000000
     26488      8803  TIP3      OH2            14.3784908273       14.8908215278       13.7515392071  SOLV      8792            0.0000000000
     26489      8803  TIP3      H1             14.2718083014       14.2019706197       14.4377712420  SOLV      8792            0.0000000000
     26490      8803  TIP3      H2             15.3449116506       14.8134675337       13.5894150354  SOLV      8792            0.0000000000
     26491      8804  TIP3      OH2             3.5424564482       18.8604377831       24.6924296765  SOLV      8793            0.0000000000
     26492      8804  TIP3      H1              4.1082191953       18.2052192426       25.1344640253  SOLV      8793            0.0000000000
     26493      8804  TIP3      H2              3.7507559592       19.6647817518       25.1878759771  SOLV      8793            0.0000000000
     26494      8805  TIP3      OH2             6.4062465970       15.3277824456       11.5639206919  SOLV      8794            0.0000000000
     26495      8805  TIP3      H1              6.5269916915       14.3976001302       11.2986479940  SOLV      8794            0.0000000000
     26496      8805  TIP3      H2              6.1823155529       15.2306259789       12.5103220121  SOLV      8794            0.0000000000
     26497      8806  TIP3      OH2             5.8408467001       15.3855000787       14.2873676130  SOLV      8795            0.0000000000
     26498      8806  TIP3      H1              6.6303445883       15.1350028043       14.7871956383  SOLV      8795            0.0000000000
     26499      8806  TIP3      H2              5.8669045228       16.3671135422       14.3536927219  SOLV      8795            0.0000000000
     26500      8807  TIP3      OH2             3.1950539726       12.3129112937       16.3340421997  SOLV      8796            0.0000000000
     26501      8807  TIP3      H1              2.5151956323       12.7711336686       16.8719816793  SOLV      8796            0.0000000000
     26502      8807  TIP3      H2              3.3196571108       12.9744790592       15.6241201269  SOLV      8796            0.0000000000
     26503      8808  TIP3      OH2            14.7163464378        8.6597626964       25.2526228441  SOLV      8797            0.0000000000
     26504      8808  TIP3      H1             15.5439436044        9.0642540035       25.5736649250  SOLV      8797            0.0000000000
     26505      8808  TIP3      H2             14.6458716848        7.8510943493       25.8058892253  SOLV      8797            0.0000000000
     26506      8809  TIP3      OH2            13.5679527884        6.1276521424       16.9473967612  SOLV      8798            0.0000000000
     26507      8809  TIP3      H1             13.4153487077        6.3283333716       16.0026272095  SOLV      8798            0.0000000000
     26508      8809  TIP3      H2             13.9445714738        6.9723207961       17.2758092609  SOLV      8798            0.0000000000
     26509      8810  TIP3      OH2             8.5382874869       17.3325939408       13.7622368835  SOLV      8799            0.0000000000
     26510      8810  TIP3      H1              7.6624035582       17.5750740819       14.1216113102  SOLV      8799            0.0000000000
     26511      8810  TIP3      H2              8.6880741928       18.0807193449       13.1639876047  SOLV      8799            0.0000000000
     26512      8811  TIP3      OH2            10.3821439719        8.0053151554       17.9164963001  SOLV      8800            0.0000000000
     26513      8811  TIP3      H1             11.0184011163        8.7331988002       17.7477934341  SOLV      8800            0.0000000000
     26514      8811  TIP3      H2             10.4452251765        7.9152090340       18.8918195541  SOLV      8800            0.0000000000
     26515      8812  TIP3      OH2            13.1939236438       11.0866873624       25.9697684684  SOLV      8801            0.0000000000
     26516      8812  TIP3      H1             13.3987427162       11.6370408942       26.7555057716  SOLV      8801            0.0000000000
     26517      8812  TIP3      H2             13.7543692774       10.3044442448       26.1211846606  SOLV      8801            0.0000000000
     26518      8813  TIP3      OH2            11.8210435486        5.1614126479       18.8855005752  SOLV      8802            0.0000000000
     26519      8813  TIP3      H1             11.7898250684        5.9397789785       19.4687866327  SOLV      8802            0.0000000000
     26520      8813  TIP3      H2             12.4495078211        5.4829455760       18.1965216508  SOLV      8802            0.0000000000
     26521      8814  TIP3      OH2             6.0041836336       18.1007490691       14.4613436366  SOLV      8803            0.0000000000
     26522      8814  TIP3      H1              5.7006866672       18.8007556010       13.8404213368  SOLV      8803            0.0000000000
     26523      8814  TIP3      H2              5.8381286693       18.5292761265       15.3297376617  SOLV      8803            0.0000000000
     26524      8815  TIP3      OH2             6.9554073408        5.2671763392       16.8122645830  SOLV      8804            0.0000000000
     26525      8815  TIP3      H1              6.9314677711        6.1652174595       17.1970387046  SOLV      8804            0.0000000000
     26526      8815  TIP3      H2              7.9167985371        5.0888229813       16.8869508576  SOLV      8804            0.0000000000
     26527      8816  TIP3      OH2            19.4316139059       10.0522841263       25.8256508271  SOLV      8805            0.0000000000
     26528      8816  TIP3      H1             18.4513033322       10.0474752814       25.8565447956  SOLV      8805            0.0000000000
     26529      8816  TIP3      H2             19.5857667721        9.7321732075       24.9264193831  SOLV      8805            0.0000000000
     26530      8817  TIP3      OH2            15.9967157241       12.1015776917       19.6797808130  SOLV      8806            0.0000000000
     26531      8817  TIP3      H1             15.2465527917       11.4933938476       19.7892849335  SOLV      8806            0.0000000000
     26532      8817  TIP3      H2             16.7193730312       11.6308819695       20.1505565879  SOLV      8806            0.0000000000
     26533      8818  TIP3      OH2             3.1634199743       14.3240067730       14.3536673369  SOLV      8807            0.0000000000
     26534      8818  TIP3      H1              3.8760319221       14.9860753232       14.4351353580  SOLV      8807            0.0000000000
     26535      8818  TIP3      H2              3.5799672746       13.7396733846       13.6811154028  SOLV      8807            0.0000000000
     26536      8819  TIP3      OH2             2.5329961780        7.1257210610       15.7293344040  SOLV      8808            0.0000000000
     26537      8819  TIP3      H1              2.5526307491        8.1033378685       15.7054952720  SOLV      8808            0.0000000000
     26538      8819  TIP3      H2              1.8059042386        6.9284258213       15.1263357899  SOLV      8808            0.0000000000
     26539      8820  TIP3      OH2            15.6744754010       21.6717920306       19.1207807113  SOLV      8809            0.0000000000
     26540      8820  TIP3      H1             15.2546960285       22.1424137883       18.3643079520  SOLV      8809            0.0000000000
     26541      8820  TIP3      H2             16.6209548383       21.8511754065       18.9218062932  SOLV      8809            0.0000000000
     26542      8821  TIP3      OH2             6.4604864178        4.3906174390       24.4444179087  SOLV      8810            0.0000000000
     26543      8821  TIP3      H1              6.1878074913        4.0231459464       23.5736640642  SOLV      8810            0.0000000000
     26544      8821  TIP3      H2              6.3685176294        3.6027099709       25.0208966506  SOLV      8810            0.0000000000
     26545      8822  TIP3      OH2             1.7838242430       16.4805972312       18.1765800723  SOLV      8811            0.0000000000
     26546      8822  TIP3      H1              1.1743735393       16.8109123683       18.8512098186  SOLV      8811            0.0000000000
     26547      8822  TIP3      H2              1.4461789213       16.9423739953       17.3706754963  SOLV      8811            0.0000000000
     26548      8823  TIP3      OH2             3.4780576304       22.0150825094       28.9318810898  SOLV      8812            0.0000000000
     26549      8823  TIP3      H1              4.3357521737       22.0393495077       29.4137418268  SOLV      8812            0.0000000000
     26550      8823  TIP3      H2              3.2978552179       21.0615050924       28.9239277833  SOLV      8812            0.0000000000
     26551      8824  TIP3      OH2             8.1854810960       21.5243630082       29.4807451345  SOLV      8813            0.0000000000
     26552      8824  TIP3      H1              9.1472437145       21.4672879501       29.4419084962  SOLV      8813            0.0000000000
     26553      8824  TIP3      H2              7.9260041592       20.9392240912       28.7401248748  SOLV      8813            0.0000000000
     26554      8825  TIP3      OH2             8.0419252247       17.3422477242       10.6384464201  SOLV      8814            0.0000000000
     26555      8825  TIP3      H1              7.4982833438       16.6115597901       11.0161425670  SOLV      8814            0.0000000000
     26556      8825  TIP3      H2              8.8002352622       16.8419583769       10.2858393076  SOLV      8814            0.0000000000
     26557      8826  TIP3      OH2            14.6130014683       20.6498577515       26.8171323688  SOLV      8815            0.0000000000
     26558      8826  TIP3      H1             14.4868821494       19.9037831259       27.4448166623  SOLV      8815            0.0000000000
     26559      8826  TIP3      H2             15.3317116807       21.1354265845       27.2479780714  SOLV      8815            0.0000000000
     26560      8827  TIP3      OH2            12.3942398728       17.7221818182        9.8018104804  SOLV      8816            0.0000000000
     26561      8827  TIP3      H1             12.8082400123       17.0849344329       10.4162363171  SOLV      8816            0.0000000000
     26562      8827  TIP3      H2             12.9690980610       17.6667529107        9.0141998705  SOLV      8816            0.0000000000
     26563      8828  TIP3      OH2             4.7356385405       16.0533980104       30.9255108843  SOLV      8817            0.0000000000
     26564      8828  TIP3      H1              4.8800785963       15.1006721818       31.0650353339  SOLV      8817            0.0000000000
     26565      8828  TIP3      H2              3.8638491807       16.0613658670       30.4744330827  SOLV      8817            0.0000000000
     26566      8829  TIP3      OH2             4.5134512571       12.4830930497       12.9143813622  SOLV      8818            0.0000000000
     26567      8829  TIP3      H1              5.1016024195       12.2011417373       13.6372123892  SOLV      8818            0.0000000000
     26568      8829  TIP3      H2              5.1645905655       12.5436824174       12.1798404118  SOLV      8818            0.0000000000
     26569      8830  TIP3      OH2            10.7976325456       16.9228730220       28.6865311690  SOLV      8819            0.0000000000
     26570      8830  TIP3      H1             10.3849524410       17.1192975574       27.8197356526  SOLV      8819            0.0000000000
     26571      8830  TIP3      H2             11.1266184189       16.0062538628       28.5630717093  SOLV      8819            0.0000000000
     26572      8831  TIP3      OH2             9.6958700619       14.5288996366       10.9930968786  SOLV      8820            0.0000000000
     26573      8831  TIP3      H1              9.6991013081       14.6310255535       11.9662791656  SOLV      8820            0.0000000000
     26574      8831  TIP3      H2              9.6961717721       13.5494335528       10.9150630650  SOLV      8820            0.0000000000
     26575      8832  TIP3      OH2            15.6133789025       17.0309184764       24.7947118374  SOLV      8821            0.0000000000
     26576      8832  TIP3      H1             16.3685459278       17.4018820556       24.2930094828  SOLV      8821            0.0000000000
     26577      8832  TIP3      H2             14.9554230176       17.7361038952       24.6325053920  SOLV      8821            0.0000000000
     26578      8833  TIP3      OH2             5.9768104629       13.3847035067       30.7271550516  SOLV      8822            0.0000000000
     26579      8833  TIP3      H1              6.7312124193       12.8060033501       30.5639312695  SOLV      8822            0.0000000000
     26580      8833  TIP3      H2              6.2075675138       13.7249360496       31.6198196348  SOLV      8822            0.0000000000
     26581      8834  TIP3      OH2             6.5693887365       11.5759786400       15.0783647193  SOLV      8823            0.0000000000
     26582      8834  TIP3      H1              6.2916020408       11.1108167511       15.8798779575  SOLV      8823            0.0000000000
     26583      8834  TIP3      H2              6.9677740305       10.8503384551       14.5513949398  SOLV      8823            0.0000000000
     26584      8835  TIP3      OH2             9.1542740536       12.1056334044       27.2317970801  SOLV      8824            0.0000000000
     26585      8835  TIP3      H1              8.4463107623       12.7783293419       27.3066956471  SOLV      8824            0.0000000000
     26586      8835  TIP3      H2              9.7567442492       12.5220813342       26.5722726326  SOLV      8824            0.0000000000
     26587      8836  TIP3      OH2             7.6159507468        9.5535266477       13.4890971117  SOLV      8825            0.0000000000
     26588      8836  TIP3      H1              7.3689017746        9.6370335127       12.5432086681  SOLV      8825            0.0000000000
     26589      8836  TIP3      H2              8.5943739611        9.5401865753       13.4175442661  SOLV      8825            0.0000000000
     26590      8837  TIP3      OH2            14.3466187603       16.2336138597       28.7161448169  SOLV      8826            0.0000000000
     26591      8837  TIP3      H1             15.2754311580       16.1686533697       28.4420491892  SOLV      8826            0.0000000000
     26592      8837  TIP3      H2             14.3229239838       15.5790370088       29.4416011414  SOLV      8826            0.0000000000
     26593      8838  TIP3      OH2            15.7699355486       12.7834504253       10.1985163574  SOLV      8827            0.0000000000
     26594      8838  TIP3      H1             15.5816161838       12.3683049903        9.3323951261  SOLV      8827            0.0000000000
     26595      8838  TIP3      H2             15.4401692021       13.6928730007       10.0043202191  SOLV      8827            0.0000000000
     26596      8839  TIP3      OH2            10.5064464701       10.1334238323       28.6105370335  SOLV      8828            0.0000000000
     26597      8839  TIP3      H1             10.5429083273        9.3202174389       28.0682738700  SOLV      8828            0.0000000000
     26598      8839  TIP3      H2             10.0336131860       10.7571294219       28.0206614176  SOLV      8828            0.0000000000
     26599      8840  TIP3      OH2            10.5271269665        7.9669792081       26.7424987227  SOLV      8829            0.0000000000
     26600      8840  TIP3      H1             10.8321012203        8.4436199897       25.9453309838  SOLV      8829            0.0000000000
     26601      8840  TIP3      H2              9.5997566785        7.7639502064       26.5033037555  SOLV      8829            0.0000000000
     26602      8841  TIP3      OH2            10.7300582942       13.1908427161       25.3375126030  SOLV      8830            0.0000000000
     26603      8841  TIP3      H1             11.6332219594       13.4575836115       25.1049203290  SOLV      8830            0.0000000000
     26604      8841  TIP3      H2             10.1989717190       13.8956334920       24.9113850236  SOLV      8830            0.0000000000
     26605      8842  TIP3      OH2            16.7577352801       12.9786355260       29.3016436503  SOLV      8831            0.0000000000
     26606      8842  TIP3      H1             17.1031200607       12.0737706766       29.3599944050  SOLV      8831            0.0000000000
     26607      8842  TIP3      H2             17.4830171541       13.4262068870       28.8365619435  SOLV      8831            0.0000000000
     26608      8843  TIP3      OH2            16.8702069618       15.2843160061       26.4503817872  SOLV      8832            0.0000000000
     26609      8843  TIP3      H1             16.3379598382       15.9087694277       25.9018874641  SOLV      8832            0.0000000000
     26610      8843  TIP3      H2             17.7795792000       15.4805529404       26.1124532972  SOLV      8832            0.0000000000
     26611      8844  TIP3      OH2             9.2214260765       11.1795879236       30.8942265500  SOLV      8833            0.0000000000
     26612      8844  TIP3      H1              8.5830970420       10.4742174316       31.1282151724  SOLV      8833            0.0000000000
     26613      8844  TIP3      H2              9.6152384386       10.8240525613       30.0730774832  SOLV      8833            0.0000000000
     26614      8845  TIP3      OH2            11.8694179632        5.5594399512       27.4225646974  SOLV      8834            0.0000000000
     26615      8845  TIP3      H1             11.3545174150        6.3656281782       27.2122276330  SOLV      8834            0.0000000000
     26616      8845  TIP3      H2             11.1896793569        4.8605314973       27.3297352761  SOLV      8834            0.0000000000
     26617      8846  TIP3      OH2            13.1248177764       10.6034413683       29.5699418424  SOLV      8835            0.0000000000
     26618      8846  TIP3      H1             13.0173610743       10.4620849426       30.5296970239  SOLV      8835            0.0000000000
     26619      8846  TIP3      H2             12.2170433523       10.3747758173       29.2797893542  SOLV      8835            0.0000000000
     26620      8847  TIP3      OH2            15.4967842153       10.1684337645       28.1375919831  SOLV      8836            0.0000000000
     26621      8847  TIP3      H1             14.7497650212       10.1527846011       28.7690667523  SOLV      8836            0.0000000000
     26622      8847  TIP3      H2             16.2337827451        9.8307032285       28.6924208859  SOLV      8836            0.0000000000
     26623      8848  TIP3      OH2            17.6908778929        9.5016675079       29.6732044110  SOLV      8837            0.0000000000
     26624      8848  TIP3      H1             17.8587433256        8.5472644517       29.8334620790  SOLV      8837            0.0000000000
     26625      8848  TIP3      H2             17.6851943705        9.8674594347       30.5808245580  SOLV      8837            0.0000000000
     26626      8849  TIP3      OH2             7.6833597815        8.9587678810       31.5108400439  SOLV      8838            0.0000000000
     26627      8849  TIP3      H1              7.7200503078        8.0196911570       31.2454377950  SOLV      8838            0.0000000000
     26628      8849  TIP3      H2              8.0654064136        8.8963189653       32.4146920348  SOLV      8838            0.0000000000
     26629      8850  TIP3      OH2            12.7874944825        5.6944613136       30.0133868802  SOLV      8839            0.0000000000
     26630      8850  TIP3      H1             13.4522872651        4.9782467668       29.9644389381  SOLV      8839            0.0000000000
     26631      8850  TIP3      H2             12.3963818292        5.6298460242       29.1195932014  SOLV      8839            0.0000000000
     26632      8851  TIP3      OH2            13.4678726495        7.8738214894       31.5682480244  SOLV      8840            0.0000000000
     26633      8851  TIP3      H1             13.2529292043        7.1405865537       30.9505824056  SOLV      8840            0.0000000000
     26634      8851  TIP3      H2             12.6643842356        8.4311191409       31.5138713836  SOLV      8840            0.0000000000
     26635      8852  TIP3      OH2             5.6986325835       20.1308699265       12.5856964208  SOLV      8841            0.0000000000
     26636      8852  TIP3      H1              6.6477026250       20.0265173223       12.3839713863  SOLV      8841            0.0000000000
     26637      8852  TIP3      H2              5.4229062231       20.6545823622       11.8098363978  SOLV      8841            0.0000000000
     26638      8853  TIP3      OH2             0.4702439517       13.9345084179       14.7400243075  SOLV      8842            0.0000000000
     26639      8853  TIP3      H1              1.4139910535       14.1441667799       14.5628410574  SOLV      8842            0.0000000000
     26640      8853  TIP3      H2              0.3862652417       13.0557807049       14.3102577478  SOLV      8842            0.0000000000
     26641      8854  TIP3      OH2            -0.3533447500       20.0627884411       18.8926310055  SOLV      8843            0.0000000000
     26642      8854  TIP3      H1             -1.0090331305       19.4617272882       18.4768696637  SOLV      8843            0.0000000000
     26643      8854  TIP3      H2              0.0853074788       19.4499311589       19.5190766964  SOLV      8843            0.0000000000
     26644      8855  TIP3      OH2             0.9937583725       18.4948947255       20.7330978364  SOLV      8844            0.0000000000
     26645      8855  TIP3      H1              0.8284247727       17.8351802399       21.4255548091  SOLV      8844            0.0000000000
     26646      8855  TIP3      H2              1.5209638091       19.1459515821       21.2328728731  SOLV      8844            0.0000000000
     26647      8856  TIP3      OH2            18.2602948668       22.4540770045       18.7608151460  SOLV      8845            0.0000000000
     26648      8856  TIP3      H1             18.5749564552       22.7704769002       19.6264648010  SOLV      8845            0.0000000000
     26649      8856  TIP3      H2             18.8002752880       22.9712232024       18.1438278209  SOLV      8845            0.0000000000
     26650      8857  TIP3      OH2            18.8772032477       22.6332554195       21.5360986333  SOLV      8846            0.0000000000
     26651      8857  TIP3      H1             18.2976886627       21.8432357165       21.4366316926  SOLV      8846            0.0000000000
     26652      8857  TIP3      H2             19.5334794258       22.2356212592       22.1598979281  SOLV      8846            0.0000000000
     26653      8858  TIP3      OH2            17.1051662120       14.6116926707       13.4966366818  SOLV      8847            0.0000000000
     26654      8858  TIP3      H1             17.6888769529       15.3335784028       13.1685905287  SOLV      8847            0.0000000000
     26655      8858  TIP3      H2             17.6268210238       14.2806014848       14.2593900959  SOLV      8847            0.0000000000
     26656      8859  TIP3      OH2            18.4676542572       13.3048748435       15.5275655611  SOLV      8848            0.0000000000
     26657      8859  TIP3      H1             17.7730979111       12.9185352502       16.1049780162  SOLV      8848            0.0000000000
     26658      8859  TIP3      H2             19.0798803819       13.7089831871       16.1749283079  SOLV      8848            0.0000000000
     26659      8860  TIP3      OH2            18.9303433766       17.2331404744       19.7674948259  SOLV      8849            0.0000000000
     26660      8860  TIP3      H1             19.4638787584       16.5632796476       19.2992283245  SOLV      8849            0.0000000000
     26661      8860  TIP3      H2             18.9466539664       17.9879711149       19.1445872640  SOLV      8849            0.0000000000
     26662      8861  TIP3      OH2            17.2208021698       20.4329730628       21.6777174847  SOLV      8850            0.0000000000
     26663      8861  TIP3      H1             16.5235321439       20.7032710419       22.2953130715  SOLV      8850            0.0000000000
     26664      8861  TIP3      H2             16.7176387806       19.9699627213       20.9733394777  SOLV      8850            0.0000000000
     26665      8862  TIP3      OH2            17.8104341271       12.4196815413       11.9763578735  SOLV      8851            0.0000000000
     26666      8862  TIP3      H1             17.0936744161       12.4390514721       11.3014623662  SOLV      8851            0.0000000000
     26667      8862  TIP3      H2             17.5198223779       13.1735819249       12.5329488181  SOLV      8851            0.0000000000
     26668      8863  TIP3      OH2            16.5362734185        9.1401777583       11.5131895587  SOLV      8852            0.0000000000
     26669      8863  TIP3      H1             16.0719261819        9.5079855574       10.7531542421  SOLV      8852            0.0000000000
     26670      8863  TIP3      H2             16.3094911393        8.1887601993       11.4232525064  SOLV      8852            0.0000000000
     26671      8864  TIP3      OH2            16.5577363850       11.9540535908       16.9839604328  SOLV      8853            0.0000000000
     26672      8864  TIP3      H1             16.6371134432       10.9909616849       16.8860239974  SOLV      8853            0.0000000000
     26673      8864  TIP3      H2             16.4065823271       12.0570692765       17.9503779633  SOLV      8853            0.0000000000
     26674      8865  TIP3      OH2             2.9151167148       12.4743459359       24.4187352030  SOLV      8854            0.0000000000
     26675      8865  TIP3      H1              2.8392408129       12.1710893514       23.4888819025  SOLV      8854            0.0000000000
     26676      8865  TIP3      H2              3.8826406160       12.5544130594       24.4855239115  SOLV      8854            0.0000000000
     26677      8866  TIP3      OH2            19.2905011167       15.9550650731       25.5331680416  SOLV      8855            0.0000000000
     26678      8866  TIP3      H1             20.0893059692       15.3953247742       25.5248687264  SOLV      8855            0.0000000000
     26679      8866  TIP3      H2             19.5991488597       16.7419723099       25.0350051922  SOLV      8855            0.0000000000
     26680      8867  TIP3      OH2            21.4916902531       14.2809366377       25.7685657919  SOLV      8856            0.0000000000
     26681      8867  TIP3      H1             20.6830625418       13.7721174169       26.0187915476  SOLV      8856            0.0000000000
     26682      8867  TIP3      H2             22.1473495036       13.5544797671       25.8764795217  SOLV      8856            0.0000000000
     26683      8868  TIP3      OH2            15.9556411692        6.4771353630       11.3232792964  SOLV      8857            0.0000000000
     26684      8868  TIP3      H1             16.6510118779        6.1467003715       11.9236749344  SOLV      8857            0.0000000000
     26685      8868  TIP3      H2             15.1909358281        5.9066923459       11.5150740727  SOLV      8857            0.0000000000
     26686      8869  TIP3      OH2            16.5604430042        9.0997929504       15.8937983484  SOLV      8858            0.0000000000
     26687      8869  TIP3      H1             16.9682063209        8.2115487031       16.0330513100  SOLV      8858            0.0000000000
     26688      8869  TIP3      H2             17.1300834714        9.4301619944       15.1761231480  SOLV      8858            0.0000000000
     26689      8870  TIP3      OH2            18.1202052178       10.7642597587       20.8623894865  SOLV      8859            0.0000000000
     26690      8870  TIP3      H1             18.9865084456       10.9834148221       20.4478213532  SOLV      8859            0.0000000000
     26691      8870  TIP3      H2             18.2797101443       11.1544890105       21.7464406069  SOLV      8859            0.0000000000
     26692      8871  TIP3      OH2            18.8503683621       12.2346135868       23.1088072791  SOLV      8860            0.0000000000
     26693      8871  TIP3      H1             18.1180718608       12.5673237807       23.6596182959  SOLV      8860            0.0000000000
     26694      8871  TIP3      H2             19.1898195151       13.0645585430       22.7105909580  SOLV      8860            0.0000000000
     26695      8872  TIP3      OH2             5.0402023656        9.5066540826       31.1419811684  SOLV      8861            0.0000000000
     26696      8872  TIP3      H1              6.0158776191        9.4752216158       31.2537971474  SOLV      8861            0.0000000000
     26697      8872  TIP3      H2              4.8019676085        8.6368920075       31.5218775822  SOLV      8861            0.0000000000
     26698      8873  TIP3      OH2            23.2670694235        8.0683218771       28.5735040771  SOLV      8862            0.0000000000
     26699      8873  TIP3      H1             23.9620862966        7.4282784236       28.3086144566  SOLV      8862            0.0000000000
     26700      8873  TIP3      H2             23.0951407190        8.5419406534       27.7334706348  SOLV      8862            0.0000000000
     26701      8874  TIP3      OH2            17.6360875657        6.5921639767       16.2885117100  SOLV      8863            0.0000000000
     26702      8874  TIP3      H1             18.1068985625        6.4246126663       17.1312135188  SOLV      8863            0.0000000000
     26703      8874  TIP3      H2             17.0171053088        5.8337474263       16.2730440062  SOLV      8863            0.0000000000
     26704      8875  TIP3      OH2             4.6665564595        6.4978068044       24.3240903719  SOLV      8864            0.0000000000
     26705      8875  TIP3      H1              5.2906616318        5.7443729764       24.3707733603  SOLV      8864            0.0000000000
     26706      8875  TIP3      H2              4.8715752301        7.0067263549       25.1120169985  SOLV      8864            0.0000000000
     26707      8876  TIP3      OH2             2.7123416227        9.0598407005       25.1777295198  SOLV      8865            0.0000000000
     26708      8876  TIP3      H1              2.7481777043        9.0343089950       24.2120270669  SOLV      8865            0.0000000000
     26709      8876  TIP3      H2              2.8247487516        9.9996846805       25.3743278273  SOLV      8865            0.0000000000
     26710      8877  TIP3      OH2            21.9556691423        9.5038277724       26.6668729128  SOLV      8866            0.0000000000
     26711      8877  TIP3      H1             21.0806790484        9.9345777360       26.7604038828  SOLV      8866            0.0000000000
     26712      8877  TIP3      H2             21.6759249990        8.7140085293       26.1572221676  SOLV      8866            0.0000000000
     26713      8878  TIP3      OH2            18.3990221600        5.8777636838       12.6725581700  SOLV      8867            0.0000000000
     26714      8878  TIP3      H1             18.7809363589        5.2012387754       12.0752113717  SOLV      8867            0.0000000000
     26715      8878  TIP3      H2             19.0596551368        6.5952728341       12.6291989162  SOLV      8867            0.0000000000
     26716      8879  TIP3      OH2             2.4753640055        4.3239604723       20.3348222482  SOLV      8868            0.0000000000
     26717      8879  TIP3      H1              1.5355730302        4.1476919248       20.5129483419  SOLV      8868            0.0000000000
     26718      8879  TIP3      H2              2.4271326887        4.8379054056       19.4998997583  SOLV      8868            0.0000000000
     26719      8880  TIP3      OH2            14.0490404066       21.2284814753       15.2753848795  SOLV      8869            0.0000000000
     26720      8880  TIP3      H1             14.6088478519       21.1775981643       14.4723368124  SOLV      8869            0.0000000000
     26721      8880  TIP3      H2             14.5247064354       21.8863891612       15.8138390870  SOLV      8869            0.0000000000
     26722      8881  TIP3      OH2             4.6863517257        4.9994963796       28.3621940905  SOLV      8870            0.0000000000
     26723      8881  TIP3      H1              4.2140081091        4.9405153302       29.2089316010  SOLV      8870            0.0000000000
     26724      8881  TIP3      H2              3.9797090905        5.3465609809       27.7825817450  SOLV      8870            0.0000000000
     26725      8882  TIP3      OH2             5.0901349031       19.2853534853       29.1110955717  SOLV      8871            0.0000000000
     26726      8882  TIP3      H1              4.1453160897       19.0679688567       28.9963939025  SOLV      8871            0.0000000000
     26727      8882  TIP3      H2              5.2194313827       19.1234775966       30.0533483747  SOLV      8871            0.0000000000
     26728      8883  TIP3      OH2             6.9144815092       19.6428334843       24.6150014086  SOLV      8872            0.0000000000
     26729      8883  TIP3      H1              6.4168856337       20.3971087923       24.2332883157  SOLV      8872            0.0000000000
     26730      8883  TIP3      H2              7.7655629383       19.7983944096       24.1559199004  SOLV      8872            0.0000000000
     26731      8884  TIP3      OH2            11.2444481461       22.0251692364       25.8403678686  SOLV      8873            0.0000000000
     26732      8884  TIP3      H1             11.5917857619       22.1418024084       26.7515139835  SOLV      8873            0.0000000000
     26733      8884  TIP3      H2             11.8731468155       22.5792867796       25.3320409450  SOLV      8873            0.0000000000
     26734      8885  TIP3      OH2            13.0590227334       23.6278769531       24.5693594903  SOLV      8874            0.0000000000
     26735      8885  TIP3      H1             13.8029621683       23.1476393185       24.1540007779  SOLV      8874            0.0000000000
     26736      8885  TIP3      H2             13.4798198508       24.0362925175       25.3412860846  SOLV      8874            0.0000000000
     26737      8886  TIP3      OH2            21.0532644145        7.1409499935       25.5590927183  SOLV      8875            0.0000000000
     26738      8886  TIP3      H1             20.1482593328        7.0457043284       25.2170327377  SOLV      8875            0.0000000000
     26739      8886  TIP3      H2             21.3876128668        6.2180867280       25.4806440206  SOLV      8875            0.0000000000
     26740      8887  TIP3      OH2             3.6176419877       22.1509978002       24.9263415118  SOLV      8876            0.0000000000
     26741      8887  TIP3      H1              2.7067190655       22.4349942367       24.6859797681  SOLV      8876            0.0000000000
     26742      8887  TIP3      H2              3.7951490609       22.7615174688       25.6599296333  SOLV      8876            0.0000000000
     26743      8888  TIP3      OH2             5.9713490347       21.9526311951       23.4663650790  SOLV      8877            0.0000000000
     26744      8888  TIP3      H1              5.0968409735       22.0800141315       23.8960788452  SOLV      8877            0.0000000000
     26745      8888  TIP3      H2              5.7950550709       22.2880001561       22.5637729795  SOLV      8877            0.0000000000
     26746      8889  TIP3      OH2            10.2203725024       22.2233812091       21.4415159024  SOLV      8878            0.0000000000
     26747      8889  TIP3      H1              9.5267294502       22.3874367467       20.7748559658  SOLV      8878            0.0000000000
     26748      8889  TIP3      H2             10.3163739039       23.1118986722       21.8425024233  SOLV      8878            0.0000000000
     26749      8890  TIP3      OH2            12.8914487997       21.5714275464       21.9149038322  SOLV      8879            0.0000000000
     26750      8890  TIP3      H1             11.9626002397       21.8068630248       21.7179410534  SOLV      8879            0.0000000000
     26751      8890  TIP3      H2             13.3735833361       22.2888434254       21.4699310417  SOLV      8879            0.0000000000
     26752      8891  TIP3      OH2            14.9660633024       23.4923996642       21.0709716386  SOLV      8880            0.0000000000
     26753      8891  TIP3      H1             14.7857039451       24.3128065987       20.5482504439  SOLV      8880            0.0000000000
     26754      8891  TIP3      H2             15.2375504129       22.8852947031       20.3470773123  SOLV      8880            0.0000000000
     26755      8892  TIP3      OH2             2.7349817801       20.1015873500       22.2811162497  SOLV      8881            0.0000000000
     26756      8892  TIP3      H1              2.9934285419       19.8296106203       23.1863632301  SOLV      8881            0.0000000000
     26757      8892  TIP3      H2              3.4685319593       19.6820412323       21.7765664314  SOLV      8881            0.0000000000
     26758      8893  TIP3      OH2             4.7035695758       18.8445389662       20.9102082106  SOLV      8882            0.0000000000
     26759      8893  TIP3      H1              4.8634399269       18.0120440540       21.4137052706  SOLV      8882            0.0000000000
     26760      8893  TIP3      H2              5.6116973449       19.2128516411       20.8641518302  SOLV      8882            0.0000000000
     26761      8894  TIP3      OH2             7.3599235798       19.7565159268       20.9692440733  SOLV      8883            0.0000000000
     26762      8894  TIP3      H1              7.6937100347       18.8530680323       20.8376909116  SOLV      8883            0.0000000000
     26763      8894  TIP3      H2              7.8478725152       19.9995965471       21.7795779724  SOLV      8883            0.0000000000
     26764      8895  TIP3      OH2            13.0367799931        6.3123637680       21.7698215256  SOLV      8884            0.0000000000
     26765      8895  TIP3      H1             12.6612102112        5.5775377777       22.2863678574  SOLV      8884            0.0000000000
     26766      8895  TIP3      H2             13.8177012160        5.8964445676       21.3513458239  SOLV      8884            0.0000000000
     26767      8896  TIP3      OH2            18.2771459818        5.1281944985       20.8187175951  SOLV      8885            0.0000000000
     26768      8896  TIP3      H1             18.6493217075        5.6454770682       20.0687690009  SOLV      8885            0.0000000000
     26769      8896  TIP3      H2             17.3320846833        5.3517859166       20.7667895069  SOLV      8885            0.0000000000
     26770      8897  TIP3      OH2            19.2591601228        6.1036061834       18.4706868707  SOLV      8886            0.0000000000
     26771      8897  TIP3      H1             20.0122031110        5.6008172016       18.0944136447  SOLV      8886            0.0000000000
     26772      8897  TIP3      H2             19.5657328495        7.0262545262       18.3079309636  SOLV      8886            0.0000000000
     26773      8898  TIP3      OH2             5.5972159404        3.4191651194       21.9807240107  SOLV      8887            0.0000000000
     26774      8898  TIP3      H1              4.6648899119        3.1122283239       21.9989904280  SOLV      8887            0.0000000000
     26775      8898  TIP3      H2              6.0573992668        2.5555335455       21.9037719284  SOLV      8887            0.0000000000
     26776      8899  TIP3      OH2             3.5603953128        2.1398118640       18.4498845894  SOLV      8888            0.0000000000
     26777      8899  TIP3      H1              3.8115385235        2.6853408231       17.6823112460  SOLV      8888            0.0000000000
     26778      8899  TIP3      H2              3.2556705997        2.8095513334       19.0859685374  SOLV      8888            0.0000000000
     26779      8900  TIP3      OH2            10.0966953805        3.7044060735       20.7815901097  SOLV      8889            0.0000000000
     26780      8900  TIP3      H1             10.5979134734        4.1874902909       20.1047772955  SOLV      8889            0.0000000000
     26781      8900  TIP3      H2             10.4349476745        4.0955519017       21.6015556158  SOLV      8889            0.0000000000
     26782      8901  TIP3      OH2            15.4055630378        5.2344598294       20.5978974241  SOLV      8890            0.0000000000
     26783      8901  TIP3      H1             15.4837341885        4.8190193423       19.7287765034  SOLV      8890            0.0000000000
     26784      8901  TIP3      H2             15.3201801698        4.4426217390       21.1814678356  SOLV      8890            0.0000000000
     26785      8902  TIP3      OH2            15.7958418305        4.4770832925       16.2248504809  SOLV      8891            0.0000000000
     26786      8902  TIP3      H1             14.9408844631        4.9138239298       16.3998096681  SOLV      8891            0.0000000000
     26787      8902  TIP3      H2             15.6510837700        3.6109691231       16.6628243802  SOLV      8891            0.0000000000
     26788      8903  TIP3      OH2             0.6197920335       17.9075543200       16.1990724421  SOLV      8892            0.0000000000
     26789      8903  TIP3      H1             -0.2406250378       17.5719632386       15.8848630405  SOLV      8892            0.0000000000
     26790      8903  TIP3      H2              0.5425618271       18.8345073338       15.9040869653  SOLV      8892            0.0000000000
     26791      8904  TIP3      OH2             4.6602411557        3.6663376309       16.0693552503  SOLV      8893            0.0000000000
     26792      8904  TIP3      H1              5.1238912579        3.0498192706       15.4677376493  SOLV      8893            0.0000000000
     26793      8904  TIP3      H2              5.4023995503        4.2107500648       16.4004315953  SOLV      8893            0.0000000000
     26794      8905  TIP3      OH2             9.7236602070        5.5012101921       17.0444791406  SOLV      8894            0.0000000000
     26795      8905  TIP3      H1             10.3294782741        5.0228707912       17.6349950991  SOLV      8894            0.0000000000
     26796      8905  TIP3      H2              9.9546356931        6.4247841856       17.2905219539  SOLV      8894            0.0000000000
     26797      8906  TIP3      OH2             8.3600873265       19.6661413478       12.0484379007  SOLV      8895            0.0000000000
     26798      8906  TIP3      H1              9.2383859026       19.9013874574       11.6818220946  SOLV      8895            0.0000000000
     26799      8906  TIP3      H2              8.1351620928       18.9279924969       11.4365475195  SOLV      8895            0.0000000000
     26800      8907  TIP3      OH2            15.5619662696       20.9299771368       12.9816326358  SOLV      8896            0.0000000000
     26801      8907  TIP3      H1             15.4673468636       19.9513031147       12.8896166968  SOLV      8896            0.0000000000
     26802      8907  TIP3      H2             15.0873850707       21.2281282122       12.1790607314  SOLV      8896            0.0000000000
     26803      8908  TIP3      OH2             7.6631080821        6.2198971362       30.8202165208  SOLV      8897            0.0000000000
     26804      8908  TIP3      H1              7.2885668745        5.5261545330       31.3939891155  SOLV      8897            0.0000000000
     26805      8908  TIP3      H2              8.5992623382        6.2054426226       31.1248904566  SOLV      8897            0.0000000000
     26806      8909  TIP3      OH2            10.1576140088        6.1729467838       32.0180706239  SOLV      8898            0.0000000000
     26807      8909  TIP3      H1             11.0324156459        5.9148605841       31.6820484070  SOLV      8898            0.0000000000
     26808      8909  TIP3      H2             10.0186836358        5.5046423430       32.7227123662  SOLV      8898            0.0000000000
     26809      8910  TIP3      OH2             1.3831379165       18.0597498681       12.5606121982  SOLV      8899            0.0000000000
     26810      8910  TIP3      H1              1.4280592958       18.2645797686       13.5041516069  SOLV      8899            0.0000000000
     26811      8910  TIP3      H2              2.2530064698       17.6217962589       12.4013804264  SOLV      8899            0.0000000000
     26812      8911  TIP3      OH2            18.4194644513        6.8319680667       29.9458666225  SOLV      8900            0.0000000000
     26813      8911  TIP3      H1             18.5559280990        6.4498269819       30.8407133686  SOLV      8900            0.0000000000
     26814      8911  TIP3      H2             19.3249992240        6.7828020221       29.5710288558  SOLV      8900            0.0000000000
     26815      8912  TIP3      OH2            30.4327911889       16.0918251953       12.4436728230  SOLV      8901            0.0000000000
     26816      8912  TIP3      H1             30.1155897077       16.9768184311       12.1618672654  SOLV      8901            0.0000000000
     26817      8912  TIP3      H2             29.6714435474       15.5436107374       12.1969041922  SOLV      8901            0.0000000000
     26818      8913  TIP3      OH2            29.9759538092       16.0087348940       16.3449415165  SOLV      8902            0.0000000000
     26819      8913  TIP3      H1             30.8373549745       16.1582514748       16.7768394373  SOLV      8902            0.0000000000
     26820      8913  TIP3      H2             29.9108260459       15.0405033113       16.3058897435  SOLV      8902            0.0000000000
     26821      8914  TIP3      OH2            23.4384976970       14.8606515390       19.9473083492  SOLV      8903            0.0000000000
     26822      8914  TIP3      H1             23.7171535212       14.1706733060       20.6008775146  SOLV      8903            0.0000000000
     26823      8914  TIP3      H2             24.2639394255       15.3384639898       19.8405114235  SOLV      8903            0.0000000000
     26824      8915  TIP3      OH2            23.1449953088       19.1190244680       17.2536660714  SOLV      8904            0.0000000000
     26825      8915  TIP3      H1             23.0181448083       18.1433761941       17.2172924336  SOLV      8904            0.0000000000
     26826      8915  TIP3      H2             24.1095719264       19.1758097209       17.1687681790  SOLV      8904            0.0000000000
     26827      8916  TIP3      OH2            20.2326835029       11.0986009846       15.0275975121  SOLV      8905            0.0000000000
     26828      8916  TIP3      H1             19.7510988271       11.9236423562       15.2174374860  SOLV      8905            0.0000000000
     26829      8916  TIP3      H2             19.5298464058       10.5963790837       14.5758610400  SOLV      8905            0.0000000000
     26830      8917  TIP3      OH2            20.7690250029       14.0655043693       16.8322605958  SOLV      8906            0.0000000000
     26831      8917  TIP3      H1             21.2637119781       13.2704657639       17.1386057174  SOLV      8906            0.0000000000
     26832      8917  TIP3      H2             21.2874443506       14.3432951690       16.0684228445  SOLV      8906            0.0000000000
     26833      8918  TIP3      OH2            28.2782087815       18.1041603773       15.8391997753  SOLV      8907            0.0000000000
     26834      8918  TIP3      H1             28.5621581547       17.1764217396       15.9941841127  SOLV      8907            0.0000000000
     26835      8918  TIP3      H2             28.8262823857       18.3116076385       15.0647632427  SOLV      8907            0.0000000000
     26836      8919  TIP3      OH2            32.0439254731       13.0600036572       17.1708144979  SOLV      8908            0.0000000000
     26837      8919  TIP3      H1             32.4416703175       12.1674446444       17.2368042364  SOLV      8908            0.0000000000
     26838      8919  TIP3      H2             31.9262574780       13.1330452380       16.2057891384  SOLV      8908            0.0000000000
     26839      8920  TIP3      OH2            26.0274125362        9.8299915475       16.7132071619  SOLV      8909            0.0000000000
     26840      8920  TIP3      H1             25.8240075675       10.6373417726       16.1879851259  SOLV      8909            0.0000000000
     26841      8920  TIP3      H2             25.5204863357        9.1569381324       16.2162550331  SOLV      8909            0.0000000000
     26842      8921  TIP3      OH2            33.0875706893       10.9542595317       13.0192608494  SOLV      8910            0.0000000000
     26843      8921  TIP3      H1             33.6013023461       10.1458823453       13.1757725110  SOLV      8910            0.0000000000
     26844      8921  TIP3      H2             33.5195175023       11.3174719702       12.2220576568  SOLV      8910            0.0000000000
     26845      8922  TIP3      OH2            22.1628375004       11.9321826582       17.7624175295  SOLV      8911            0.0000000000
     26846      8922  TIP3      H1             22.9205673342       11.5662979662       18.2764626429  SOLV      8911            0.0000000000
     26847      8922  TIP3      H2             22.2828025781       11.4197313894       16.9440097962  SOLV      8911            0.0000000000
     26848      8923  TIP3      OH2            26.8004852030       13.9882783222       15.7189196463  SOLV      8912            0.0000000000
     26849      8923  TIP3      H1             27.6955684244       13.6075329647       15.8809698483  SOLV      8912            0.0000000000
     26850      8923  TIP3      H2             26.3108906416       13.2029151518       15.3997361309  SOLV      8912            0.0000000000
     26851      8924  TIP3      OH2            25.8666743728        9.8641837494       21.0844695085  SOLV      8913            0.0000000000
     26852      8924  TIP3      H1             25.1368281658        9.9636847417       20.4580176898  SOLV      8913            0.0000000000
     26853      8924  TIP3      H2             25.4007200618       10.0850475201       21.9282393735  SOLV      8913            0.0000000000
     26854      8925  TIP3      OH2            29.4459029179       18.3225284226       11.1282672074  SOLV      8914            0.0000000000
     26855      8925  TIP3      H1             29.0704644361       18.1436712516       10.2506671021  SOLV      8914            0.0000000000
     26856      8925  TIP3      H2             28.9797283860       19.1650350417       11.3382224229  SOLV      8914            0.0000000000
     26857      8926  TIP3      OH2            27.1028597984       17.1130507374       19.0678424573  SOLV      8915            0.0000000000
     26858      8926  TIP3      H1             26.5457383903       17.6308353869       19.6606377192  SOLV      8915            0.0000000000
     26859      8926  TIP3      H2             27.2047670244       17.7465412365       18.3207143140  SOLV      8915            0.0000000000
     26860      8927  TIP3      OH2            35.1984192329       10.6091212741       15.2403302321  SOLV      8916            0.0000000000
     26861      8927  TIP3      H1             34.3304052901       10.5883258081       15.7078837239  SOLV      8916            0.0000000000
     26862      8927  TIP3      H2             35.0646987871       11.3391147787       14.6101702058  SOLV      8916            0.0000000000
     26863      8928  TIP3      OH2            24.2943185055       10.5410553948       18.8290325579  SOLV      8917            0.0000000000
     26864      8928  TIP3      H1             24.8264666820       11.3286070768       19.1117231569  SOLV      8917            0.0000000000
     26865      8928  TIP3      H2             24.9205479381       10.2161313434       18.1489776837  SOLV      8917            0.0000000000
     26866      8929  TIP3      OH2            18.9082622423       16.4533092211       12.5005053940  SOLV      8918            0.0000000000
     26867      8929  TIP3      H1             18.8132541328       16.5814906330       11.5405146596  SOLV      8918            0.0000000000
     26868      8929  TIP3      H2             19.4660982794       17.2085401365       12.7514730693  SOLV      8918            0.0000000000
     26869      8930  TIP3      OH2            29.3135275492        6.8499793580       18.1599381229  SOLV      8919            0.0000000000
     26870      8930  TIP3      H1             29.0833447266        5.9325496018       18.4085569733  SOLV      8919            0.0000000000
     26871      8930  TIP3      H2             28.6332424473        7.3380115655       18.6787438151  SOLV      8919            0.0000000000
     26872      8931  TIP3      OH2            32.3885083356       19.6003415467       10.4891549125  SOLV      8920            0.0000000000
     26873      8931  TIP3      H1             31.8227076459       19.0667272453        9.9178473137  SOLV      8920            0.0000000000
     26874      8931  TIP3      H2             31.7838839133       19.8570452797       11.1943072329  SOLV      8920            0.0000000000
     26875      8932  TIP3      OH2            28.6861116230       14.5172383148       10.7998334498  SOLV      8921            0.0000000000
     26876      8932  TIP3      H1             27.9581343406       15.1523949628       10.6334215253  SOLV      8921            0.0000000000
     26877      8932  TIP3      H2             29.1756683235       14.5475913736        9.9571661663  SOLV      8921            0.0000000000
     26878      8933  TIP3      OH2            28.4523903816       12.3547461809        8.3023930108  SOLV      8922            0.0000000000
     26879      8933  TIP3      H1             29.1826565156       12.9775345688        8.4883542108  SOLV      8922            0.0000000000
     26880      8933  TIP3      H2             28.9126299380       11.7472295379        7.6894124734  SOLV      8922            0.0000000000
     26881      8934  TIP3      OH2            32.2319601894       15.4139257406       10.4890034922  SOLV      8923            0.0000000000
     26882      8934  TIP3      H1             31.7239500918       15.6437918196       11.3002491698  SOLV      8923            0.0000000000
     26883      8934  TIP3      H2             33.1071270128       15.1864086820       10.8673265194  SOLV      8923            0.0000000000
     26884      8935  TIP3      OH2            25.8143213413       19.3569673760       15.9732419196  SOLV      8924            0.0000000000
     26885      8935  TIP3      H1             25.4071186138       19.3423418026       15.0791070383  SOLV      8924            0.0000000000
     26886      8935  TIP3      H2             26.6377696665       18.8445148732       15.8279661389  SOLV      8924            0.0000000000
     26887      8936  TIP3      OH2            25.6202324119       15.1583586693       17.8517769531  SOLV      8925            0.0000000000
     26888      8936  TIP3      H1             26.0586624918       14.7549348933       17.0893081769  SOLV      8925            0.0000000000
     26889      8936  TIP3      H2             26.3329668996       15.6540431588       18.2704222655  SOLV      8925            0.0000000000
     26890      8937  TIP3      OH2            30.6319598773       13.9988247976        8.7788377373  SOLV      8926            0.0000000000
     26891      8937  TIP3      H1             31.2167276066       14.6271159032        9.2591346481  SOLV      8926            0.0000000000
     26892      8937  TIP3      H2             30.9009398555       14.1854626853        7.8426530989  SOLV      8926            0.0000000000
     26893      8938  TIP3      OH2            24.5738955603       16.2348413359       22.4849174605  SOLV      8927            0.0000000000
     26894      8938  TIP3      H1             24.4948514039       17.1442759061       22.2715677279  SOLV      8927            0.0000000000
     26895      8938  TIP3      H2             23.6528559565       15.9649442087       22.6521758428  SOLV      8927            0.0000000000
     26896      8939  TIP3      OH2            28.2189395185       20.7230678419       11.3990472416  SOLV      8928            0.0000000000
     26897      8939  TIP3      H1             28.4738007208       21.1330169683       12.2481118363  SOLV      8928            0.0000000000
     26898      8939  TIP3      H2             27.6585607256       21.3940756700       10.9811467433  SOLV      8928            0.0000000000
     26899      8940  TIP3      OH2            35.7508372979        6.3859740455        9.2389195980  SOLV      8929            0.0000000000
     26900      8940  TIP3      H1             34.9416049523        6.6439793859        9.7221328953  SOLV      8929            0.0000000000
     26901      8940  TIP3      H2             35.9549039759        7.2065570445        8.7423717485  SOLV      8929            0.0000000000
     26902      8941  TIP3      OH2            33.8837256930       20.0314087590        4.7942353274  SOLV      8930            0.0000000000
     26903      8941  TIP3      H1             33.9236129706       21.0051651122        4.6420719675  SOLV      8930            0.0000000000
     26904      8941  TIP3      H2             34.8083300583       19.7805579048        4.5981328510  SOLV      8930            0.0000000000
     26905      8942  TIP3      OH2            20.9808205963       17.6747384987       21.7090594979  SOLV      8931            0.0000000000
     26906      8942  TIP3      H1             20.3346155837       17.4039301718       21.0323842378  SOLV      8931            0.0000000000
     26907      8942  TIP3      H2             21.4482586853       16.8520048831       21.9280817141  SOLV      8931            0.0000000000
     26908      8943  TIP3      OH2            19.5096733544       19.5358654068       18.1458153839  SOLV      8932            0.0000000000
     26909      8943  TIP3      H1             20.4547902278       19.5712958830       17.9594584733  SOLV      8932            0.0000000000
     26910      8943  TIP3      H2             19.3496067258       20.3686436925       18.6204123401  SOLV      8932            0.0000000000
     26911      8944  TIP3      OH2            26.8838471583       23.1458129094        9.6029471888  SOLV      8933            0.0000000000
     26912      8944  TIP3      H1             26.4677371254       23.0309210854        8.7281190750  SOLV      8933            0.0000000000
     26913      8944  TIP3      H2             26.6077637195       24.0407912659        9.8605287866  SOLV      8933            0.0000000000
     26914      8945  TIP3      OH2            21.2596655795       21.6963572270       13.3338867656  SOLV      8934            0.0000000000
     26915      8945  TIP3      H1             21.6001312465       21.5841615709       14.2492476458  SOLV      8934            0.0000000000
     26916      8945  TIP3      H2             20.7748631696       20.8535347198       13.2288534097  SOLV      8934            0.0000000000
     26917      8946  TIP3      OH2            28.7731916654       22.0040309795        5.8990725420  SOLV      8935            0.0000000000
     26918      8946  TIP3      H1             29.3917524140       21.3520307962        5.5016276259  SOLV      8935            0.0000000000
     26919      8946  TIP3      H2             29.2166668918       22.2008434850        6.7447007125  SOLV      8935            0.0000000000
     26920      8947  TIP3      OH2            29.3965363428       22.6642735418        8.6717913402  SOLV      8936            0.0000000000
     26921      8947  TIP3      H1             28.5480623217       22.8166823626        9.1434068239  SOLV      8936            0.0000000000
     26922      8947  TIP3      H2             29.9378864727       22.2921737453        9.3808448974  SOLV      8936            0.0000000000
     26923      8948  TIP3      OH2            27.0635239548        7.7310688256       19.5756083846  SOLV      8937            0.0000000000
     26924      8948  TIP3      H1             26.1639971677        7.4770060407       19.2923955972  SOLV      8937            0.0000000000
     26925      8948  TIP3      H2             26.8633280522        8.5746517586       20.0328648751  SOLV      8937            0.0000000000
     26926      8949  TIP3      OH2            32.0432061006        8.6084607249       20.6202267052  SOLV      8938            0.0000000000
     26927      8949  TIP3      H1             32.7706403421        8.9316393877       21.1687604334  SOLV      8938            0.0000000000
     26928      8949  TIP3      H2             31.3045729339        8.6418782085       21.2600192092  SOLV      8938            0.0000000000
     26929      8950  TIP3      OH2            31.4297734503       14.3755905444        6.2461045816  SOLV      8939            0.0000000000
     26930      8950  TIP3      H1             31.0444871653       14.1940088661        5.3668553389  SOLV      8939            0.0000000000
     26931      8950  TIP3      H2             32.2548564716       14.8341110029        5.9922586955  SOLV      8939            0.0000000000
     26932      8951  TIP3      OH2            28.5257358629        8.1639766298        9.3121312334  SOLV      8940            0.0000000000
     26933      8951  TIP3      H1             28.1173432975        8.1210265079       10.1985241115  SOLV      8940            0.0000000000
     26934      8951  TIP3      H2             28.1112936416        7.3754684031        8.9059071238  SOLV      8940            0.0000000000
     26935      8952  TIP3      OH2            26.1527918159       12.5291585806       19.0150820645  SOLV      8941            0.0000000000
     26936      8952  TIP3      H1             26.8002356062       13.1453485753       19.5215528441  SOLV      8941            0.0000000000
     26937      8952  TIP3      H2             25.5342986310       13.2242469898       18.6793812868  SOLV      8941            0.0000000000
     26938      8953  TIP3      OH2            25.2362254665       11.7674435645       14.9586811430  SOLV      8942            0.0000000000
     26939      8953  TIP3      H1             24.3063706209       11.5431485639       15.1790439362  SOLV      8942            0.0000000000
     26940      8953  TIP3      H2             25.2097599573       11.7399110437       13.9939943073  SOLV      8942            0.0000000000
     26941      8954  TIP3      OH2            30.1099428291       12.5476333834       12.1193820419  SOLV      8943            0.0000000000
     26942      8954  TIP3      H1             29.6246827135       13.2744519679       11.6725864676  SOLV      8943            0.0000000000
     26943      8954  TIP3      H2             30.6839420594       12.2239761135       11.3932809295  SOLV      8943            0.0000000000
     26944      8955  TIP3      OH2            31.5083443257       12.8557414644       14.4834068009  SOLV      8944            0.0000000000
     26945      8955  TIP3      H1             30.8678079278       13.0390787193       13.7612464005  SOLV      8944            0.0000000000
     26946      8955  TIP3      H2             32.0243079476       12.1469865504       14.0417622447  SOLV      8944            0.0000000000
     26947      8956  TIP3      OH2            24.6030044962       13.0878877671       22.0094828569  SOLV      8945            0.0000000000
     26948      8956  TIP3      H1             24.4744687344       13.7484661170       22.6660854756  SOLV      8945            0.0000000000
     26949      8956  TIP3      H2             24.2630731962       12.2737086414       22.4654658170  SOLV      8945            0.0000000000
     26950      8957  TIP3      OH2            25.1611346642        8.0452907980        8.8931596435  SOLV      8946            0.0000000000
     26951      8957  TIP3      H1             24.9525665537        7.9008894435        9.8373331988  SOLV      8946            0.0000000000
     26952      8957  TIP3      H2             24.3611935431        8.5425312147        8.6082384805  SOLV      8946            0.0000000000
     26953      8958  TIP3      OH2            20.4134732961        8.3607204899       17.5688030447  SOLV      8947            0.0000000000
     26954      8958  TIP3      H1             21.1256064728        8.5718357301       18.2178499156  SOLV      8947            0.0000000000
     26955      8958  TIP3      H2             20.8894133565        8.0473093691       16.7939525563  SOLV      8947            0.0000000000
     26956      8959  TIP3      OH2            20.1517995064        8.1836920321       12.8587203747  SOLV      8948            0.0000000000
     26957      8959  TIP3      H1             20.5569015496        8.5458795130       12.0393231649  SOLV      8948            0.0000000000
     26958      8959  TIP3      H2             19.5288628975        8.9111588863       13.0519888918  SOLV      8948            0.0000000000
     26959      8960  TIP3      OH2            28.5696953428        9.8456480141       15.4696601883  SOLV      8949            0.0000000000
     26960      8960  TIP3      H1             27.7201755314        9.8511296906       15.9591016537  SOLV      8949            0.0000000000
     26961      8960  TIP3      H2             29.1901668406       10.0582579311       16.1821577706  SOLV      8949            0.0000000000
     26962      8961  TIP3      OH2            22.8284985814       10.5245176192       15.5140165728  SOLV      8950            0.0000000000
     26963      8961  TIP3      H1             21.8898456086       10.6542894537       15.2244053875  SOLV      8950            0.0000000000
     26964      8961  TIP3      H2             22.9774741685        9.5886334175       15.3118029795  SOLV      8950            0.0000000000
     26965      8962  TIP3      OH2            33.2476470031       10.5986332552       17.2024325412  SOLV      8951            0.0000000000
     26966      8962  TIP3      H1             33.4653610475       10.3844236517       18.1219751676  SOLV      8951            0.0000000000
     26967      8962  TIP3      H2             32.4879961005        9.9890031296       17.0479684119  SOLV      8951            0.0000000000
     26968      8963  TIP3      OH2            29.2604697326       13.0003095695       16.3789567756  SOLV      8952            0.0000000000
     26969      8963  TIP3      H1             30.0819294426       12.7492490800       15.9337530905  SOLV      8952            0.0000000000
     26970      8963  TIP3      H2             29.4365119006       12.7466985382       17.3016396498  SOLV      8952            0.0000000000
     26971      8964  TIP3      OH2            24.5968334883        7.9999729794       15.2149937912  SOLV      8953            0.0000000000
     26972      8964  TIP3      H1             24.1108103569        7.3696054983       15.7917548333  SOLV      8953            0.0000000000
     26973      8964  TIP3      H2             25.1997020260        7.3904850770       14.7688388875  SOLV      8953            0.0000000000
     26974      8965  TIP3      OH2            29.2197043012       12.4065280898       19.4940573409  SOLV      8954            0.0000000000
     26975      8965  TIP3      H1             28.5884755062       13.1441513814       19.4243992307  SOLV      8954            0.0000000000
     26976      8965  TIP3      H2             29.7426509128       12.6843008662       20.2421516526  SOLV      8954            0.0000000000
     26977      8966  TIP3      OH2            26.4179954102       16.1131201701       10.3855660218  SOLV      8955            0.0000000000
     26978      8966  TIP3      H1             25.6551688410       15.5153143332       10.5619695199  SOLV      8955            0.0000000000
     26979      8966  TIP3      H2             26.4166915167       16.5951434792       11.2468301226  SOLV      8955            0.0000000000
     26980      8967  TIP3      OH2            31.0421460130        9.1538760438        9.0888988218  SOLV      8956            0.0000000000
     26981      8967  TIP3      H1             30.0746068858        8.9563697823        9.0899212384  SOLV      8956            0.0000000000
     26982      8967  TIP3      H2             31.0740166961       10.1218224271        9.2058470550  SOLV      8956            0.0000000000
     26983      8968  TIP3      OH2            31.7462102137       11.7611446792       10.0242222646  SOLV      8957            0.0000000000
     26984      8968  TIP3      H1             32.7174660052       11.8327693948       10.0647267887  SOLV      8957            0.0000000000
     26985      8968  TIP3      H2             31.5029710229       12.5398608532        9.4828637915  SOLV      8957            0.0000000000
     26986      8969  TIP3      OH2            23.2455348221       16.3914983309       17.0897365370  SOLV      8958            0.0000000000
     26987      8969  TIP3      H1             23.6958321746       16.0280479842       16.3218318492  SOLV      8958            0.0000000000
     26988      8969  TIP3      H2             23.7471674474       15.9368699415       17.7909537624  SOLV      8958            0.0000000000
     26989      8970  TIP3      OH2            27.9141370035       17.5757554578        8.6383850302  SOLV      8959            0.0000000000
     26990      8970  TIP3      H1             27.4335712482       18.4386098918        8.6052511153  SOLV      8959            0.0000000000
     26991      8970  TIP3      H2             27.3072429477       17.0536845215        9.2051983477  SOLV      8959            0.0000000000
     26992      8971  TIP3      OH2            22.0657176754       15.3733130791       23.2105234143  SOLV      8960            0.0000000000
     26993      8971  TIP3      H1             21.8937096021       15.1517096359       24.1423845075  SOLV      8960            0.0000000000
     26994      8971  TIP3      H2             21.3098692147       14.9363537126       22.7724742020  SOLV      8960            0.0000000000
     26995      8972  TIP3      OH2            36.0334151875       12.6704991907        8.2802794288  SOLV      8961            0.0000000000
     26996      8972  TIP3      H1             35.4334503077       12.2185491264        7.6368222054  SOLV      8961            0.0000000000
     26997      8972  TIP3      H2             36.0106015420       13.5577217575        7.8500731155  SOLV      8961            0.0000000000
     26998      8973  TIP3      OH2            32.8070513092       20.4696836381        7.3594213450  SOLV      8962            0.0000000000
     26999      8973  TIP3      H1             32.6842957378       19.6589811438        7.8723958664  SOLV      8962            0.0000000000
     27000      8973  TIP3      H2             33.1208662504       20.1401128603        6.4963284067  SOLV      8962            0.0000000000
     27001      8974  TIP3      OH2            24.3967712196       19.3840233825       13.4316421293  SOLV      8963            0.0000000000
     27002      8974  TIP3      H1             24.3853134025       20.1905093801       12.8766857282  SOLV      8963            0.0000000000
     27003      8974  TIP3      H2             23.4536226194       19.1750507731       13.4522492091  SOLV      8963            0.0000000000
     27004      8975  TIP3      OH2            20.0489097259       12.3630237241       10.3890786026  SOLV      8964            0.0000000000
     27005      8975  TIP3      H1             20.5234893644       13.1610350019       10.6550086389  SOLV      8964            0.0000000000
     27006      8975  TIP3      H2             19.2643092378       12.3958453078       10.9844103283  SOLV      8964            0.0000000000
     27007      8976  TIP3      OH2            25.9536447715       17.1635064121       12.7836367267  SOLV      8965            0.0000000000
     27008      8976  TIP3      H1             25.4271695939       17.9480328362       13.0354672768  SOLV      8965            0.0000000000
     27009      8976  TIP3      H2             25.4833013643       16.4318444599       13.2025596128  SOLV      8965            0.0000000000
     27010      8977  TIP3      OH2            23.6380264193       21.7599065628       11.8595493580  SOLV      8966            0.0000000000
     27011      8977  TIP3      H1             22.7644746801       21.8679513208       12.2910586189  SOLV      8966            0.0000000000
     27012      8977  TIP3      H2             24.0036952622       22.6655952104       11.9467758546  SOLV      8966            0.0000000000
     27013      8978  TIP3      OH2            30.7390560542       18.0760467017        6.4009456720  SOLV      8967            0.0000000000
     27014      8978  TIP3      H1             31.2366671438       17.7684310809        7.1929647099  SOLV      8967            0.0000000000
     27015      8978  TIP3      H2             29.8384858018       17.7984740043        6.6279701214  SOLV      8967            0.0000000000
     27016      8979  TIP3      OH2            33.9992937399       22.7530000467        4.4111067815  SOLV      8968            0.0000000000
     27017      8979  TIP3      H1             34.1206529987       23.4110526729        3.7109197806  SOLV      8968            0.0000000000
     27018      8979  TIP3      H2             33.3114703223       23.2059928871        4.9377104483  SOLV      8968            0.0000000000
     27019      8980  TIP3      OH2            24.2608206615       10.5537290167       23.2916321321  SOLV      8969            0.0000000000
     27020      8980  TIP3      H1             23.2983696021       10.5237118404       23.4423437770  SOLV      8969            0.0000000000
     27021      8980  TIP3      H2             24.6012758512       10.0527401360       24.0437013131  SOLV      8969            0.0000000000
     27022      8981  TIP3      OH2            32.2852208928       17.3558625185        8.5211976327  SOLV      8970            0.0000000000
     27023      8981  TIP3      H1             32.1850316489       16.7305457904        9.2668505952  SOLV      8970            0.0000000000
     27024      8981  TIP3      H2             33.2597592125       17.3099172318        8.4003552907  SOLV      8970            0.0000000000
     27025      8982  TIP3      OH2            21.2851601599       21.4861515723       19.5336479572  SOLV      8971            0.0000000000
     27026      8982  TIP3      H1             21.5358710125       20.5610825971       19.6442720037  SOLV      8971            0.0000000000
     27027      8982  TIP3      H2             21.6324023036       21.8222656088       20.3770356150  SOLV      8971            0.0000000000
     27028      8983  TIP3      OH2            24.3742983490       17.8914709564        6.4277198531  SOLV      8972            0.0000000000
     27029      8983  TIP3      H1             24.4712542872       16.9571145244        6.1657948925  SOLV      8972            0.0000000000
     27030      8983  TIP3      H2             24.1534846592       17.8018421242        7.3764184400  SOLV      8972            0.0000000000
     27031      8984  TIP3      OH2            23.7816479346       17.9560813701        9.1401648487  SOLV      8973            0.0000000000
     27032      8984  TIP3      H1             24.4386446344       17.7247086494        9.8080760786  SOLV      8973            0.0000000000
     27033      8984  TIP3      H2             23.8093642216       18.9395795610        9.1694938944  SOLV      8973            0.0000000000
     27034      8985  TIP3      OH2            31.4960086839        8.7548489173       11.8131505841  SOLV      8974            0.0000000000
     27035      8985  TIP3      H1             31.3045835240        8.8324414130       10.8543146868  SOLV      8974            0.0000000000
     27036      8985  TIP3      H2             31.7420120697        9.6692236600       12.0326413088  SOLV      8974            0.0000000000
     27037      8986  TIP3      OH2            26.5070681701       19.8724862062        8.6067381003  SOLV      8975            0.0000000000
     27038      8986  TIP3      H1             25.6277136263       20.1245329100        8.9511025936  SOLV      8975            0.0000000000
     27039      8986  TIP3      H2             26.6998418319       20.6476818403        8.0574802169  SOLV      8975            0.0000000000
     27040      8987  TIP3      OH2            28.2736384009       10.6116824909       12.8280161579  SOLV      8976            0.0000000000
     27041      8987  TIP3      H1             28.9120894989       11.3348018489       12.6580168300  SOLV      8976            0.0000000000
     27042      8987  TIP3      H2             28.3344446569       10.5207225474       13.8009320124  SOLV      8976            0.0000000000
     27043      8988  TIP3      OH2            29.7425608363        7.7777299195       13.7908542453  SOLV      8977            0.0000000000
     27044      8988  TIP3      H1             29.5392354679        8.5799529841       14.3137896438  SOLV      8977            0.0000000000
     27045      8988  TIP3      H2             30.3910965039        8.1287953056       13.1401622452  SOLV      8977            0.0000000000
     27046      8989  TIP3      OH2            23.9683176250       20.6615118900        9.3177640391  SOLV      8978            0.0000000000
     27047      8989  TIP3      H1             23.6515376457       21.3612623878        8.7032193519  SOLV      8978            0.0000000000
     27048      8989  TIP3      H2             23.8076723191       21.0845280504       10.1887784483  SOLV      8978            0.0000000000
     27049      8990  TIP3      OH2            24.8819796264        7.6804533099       11.6032252917  SOLV      8979            0.0000000000
     27050      8990  TIP3      H1             24.7232900409        8.3387856080       12.2908552834  SOLV      8979            0.0000000000
     27051      8990  TIP3      H2             25.8558285387        7.5712956904       11.6726556672  SOLV      8979            0.0000000000
     27052      8991  TIP3      OH2            33.8935348057       14.4380568526       14.2538944232  SOLV      8980            0.0000000000
     27053      8991  TIP3      H1             32.9482971417       14.2478440009       14.3691365491  SOLV      8980            0.0000000000
     27054      8991  TIP3      H2             34.0862692230       15.0012071413       15.0218615391  SOLV      8980            0.0000000000
     27055      8992  TIP3      OH2            20.9935143767       17.1116246675        8.9894431967  SOLV      8981            0.0000000000
     27056      8992  TIP3      H1             21.7646029108       17.6611056402        9.2067864271  SOLV      8981            0.0000000000
     27057      8992  TIP3      H2             21.4372354877       16.4178062672        8.4607981162  SOLV      8981            0.0000000000
     27058      8993  TIP3      OH2            20.4676224562        9.6589842185       10.6097163265  SOLV      8982            0.0000000000
     27059      8993  TIP3      H1             20.5411686680       10.6336887202       10.5876876268  SOLV      8982            0.0000000000
     27060      8993  TIP3      H2             19.7245930889        9.5122348537       10.0135485973  SOLV      8982            0.0000000000
     27061      8994  TIP3      OH2            24.4235589096        6.8970816496       19.2657694215  SOLV      8983            0.0000000000
     27062      8994  TIP3      H1             24.1488156091        6.5406057780       18.3995742367  SOLV      8983            0.0000000000
     27063      8994  TIP3      H2             24.3508299071        6.1071411993       19.8473542566  SOLV      8983            0.0000000000
     27064      8995  TIP3      OH2            19.8714209906       19.1843235597       13.0426897717  SOLV      8984            0.0000000000
     27065      8995  TIP3      H1             19.1992294483       19.3551291329       13.7169487555  SOLV      8984            0.0000000000
     27066      8995  TIP3      H2             19.4374616292       19.5585302040       12.2367993224  SOLV      8984            0.0000000000
     27067      8996  TIP3      OH2            25.9727569256       19.9218823741        5.4958716078  SOLV      8985            0.0000000000
     27068      8996  TIP3      H1             25.4427765648       19.1815530866        5.8742496435  SOLV      8985            0.0000000000
     27069      8996  TIP3      H2             26.7627477103       19.4452357022        5.1871689922  SOLV      8985            0.0000000000
     27070      8997  TIP3      OH2            30.4088464965       20.2549554189        4.6227645935  SOLV      8986            0.0000000000
     27071      8997  TIP3      H1             30.8634977714       19.6898577755        5.2740871322  SOLV      8986            0.0000000000
     27072      8997  TIP3      H2             30.9853632990       20.1981669031        3.8362152727  SOLV      8986            0.0000000000
     27073      8998  TIP3      OH2            22.3414171143       15.1092310742        7.7039910182  SOLV      8987            0.0000000000
     27074      8998  TIP3      H1             22.8254121203       14.7790267100        8.4730059675  SOLV      8987            0.0000000000
     27075      8998  TIP3      H2             23.0607474681       15.1661485863        7.0362977607  SOLV      8987            0.0000000000
     27076      8999  TIP3      OH2            27.6929339442       17.1316359920        5.8968638361  SOLV      8988            0.0000000000
     27077      8999  TIP3      H1             27.6427059640       17.2109418069        6.8691473424  SOLV      8988            0.0000000000
     27078      8999  TIP3      H2             27.6908162233       16.1546506912        5.7951396576  SOLV      8988            0.0000000000
     27079      9000  TIP3      OH2            27.3878058912       14.3642282037       20.5666483881  SOLV      8989            0.0000000000
     27080      9000  TIP3      H1             27.1218756205       13.7915621458       21.2977328136  SOLV      8989            0.0000000000
     27081      9000  TIP3      H2             27.0690073057       15.2745101982       21.0669091783  SOLV      8989            0.0000000000
     27082      9001  TIP3      OH2            33.7432685613       15.3521190548        5.0611662288  SOLV      8990            0.0000000000
     27083      9001  TIP3      H1             33.5479995106       14.9340190723        4.1977031090  SOLV      8990            0.0000000000
     27084      9001  TIP3      H2             33.4070222607       16.2592325824        4.8665677107  SOLV      8990            0.0000000000
     27085      9002  TIP3      OH2           -15.1584562612      -27.7067706465      -19.3636253338  SOLV      8991            0.0000000000
     27086      9002  TIP3      H1            -14.9554416753      -28.1911932461      -18.5159129428  SOLV      8991            0.0000000000
     27087      9002  TIP3      H2            -15.9015575129      -27.1965959387      -19.0421115806  SOLV      8991            0.0000000000
     27088      9003  TIP3      OH2            28.5968377127       10.1504487756       21.1637486683  SOLV      8992            0.0000000000
     27089      9003  TIP3      H1             28.7637278784       10.7751180959       20.4436736020  SOLV      8992            0.0000000000
     27090      9003  TIP3      H2             27.6147399532       10.1643883302       21.2202177834  SOLV      8992            0.0000000000
     27091      9004  TIP3      OH2            29.7401620882        7.9299988848       22.2597729535  SOLV      8993            0.0000000000
     27092      9004  TIP3      H1             29.3116008616        8.7484868783       21.9120392926  SOLV      8993            0.0000000000
     27093      9004  TIP3      H2             29.0125469917        7.2833262086       22.1456974729  SOLV      8993            0.0000000000
     27094      9005  TIP3      OH2            25.5203375587       11.5958281638       26.3156896564  SOLV      8994            0.0000000000
     27095      9005  TIP3      H1             25.9277275405       10.8013753436       25.9219546705  SOLV      8994            0.0000000000
     27096      9005  TIP3      H2             25.4418071426       11.3164891025       27.2493981392  SOLV      8994            0.0000000000
     27097      9006  TIP3      OH2            30.3299022125        7.9167232190       24.8857747647  SOLV      8995            0.0000000000
     27098      9006  TIP3      H1             31.0825066070        7.3281317971       25.0146266284  SOLV      8995            0.0000000000
     27099      9006  TIP3      H2             30.1879951155        7.8538541351       23.9111964381  SOLV      8995            0.0000000000
     27100      9007  TIP3      OH2            23.6281268606       22.7156694050        7.4667022270  SOLV      8996            0.0000000000
     27101      9007  TIP3      H1             24.5802685482       22.6010813977        7.2822081503  SOLV      8996            0.0000000000
     27102      9007  TIP3      H2             23.3707745485       23.2265571630        6.6765501729  SOLV      8996            0.0000000000
     27103      9008  TIP3      OH2            18.4269858272       16.4974894693        9.6108637869  SOLV      8997            0.0000000000
     27104      9008  TIP3      H1             19.3516528615       16.7700891916        9.4045598333  SOLV      8997            0.0000000000
     27105      9008  TIP3      H2             18.3830134984       15.6222903388        9.1731140638  SOLV      8997            0.0000000000
     27106      9009  TIP3      OH2            17.6088517129       22.6463833985       13.7476551276  SOLV      8998            0.0000000000
     27107      9009  TIP3      H1             16.9519224171       22.0402542288       13.3410704145  SOLV      8998            0.0000000000
     27108      9009  TIP3      H2             18.0451042885       22.0366587766       14.3804727845  SOLV      8998            0.0000000000
     27109      9010  TIP3      OH2            18.8951401143       21.0847932033       15.6126082622  SOLV      8999            0.0000000000
     27110      9010  TIP3      H1             18.7531188423       20.3974090150       16.2828381311  SOLV      8999            0.0000000000
     27111      9010  TIP3      H2             19.3940111968       21.7452627257       16.1250697027  SOLV      8999            0.0000000000
     27112      9011  TIP3      OH2            35.0171709184       17.2132694159        8.2952136542  SOLV      9000            0.0000000000
     27113      9011  TIP3      H1             35.6338514668       17.8963557619        7.9679171516  SOLV      9000            0.0000000000
     27114      9011  TIP3      H2             35.4898393467       16.9262006476        9.1098903923  SOLV      9000            0.0000000000
     27115      9012  TIP3      OH2            36.4050437032       16.1263442330       10.3659143629  SOLV      9001            0.0000000000
     27116      9012  TIP3      H1             35.7801977143       15.5468059222       10.8528737409  SOLV      9001            0.0000000000
     27117      9012  TIP3      H2             37.1070783179       16.2795053289       11.0101959567  SOLV      9001            0.0000000000
     27118      9013  TIP3      OH2            35.7513331411       14.9801511872        6.8519014054  SOLV      9002            0.0000000000
     27119      9013  TIP3      H1             35.0558180634       14.9904449082        6.1540866650  SOLV      9002            0.0000000000
     27120      9013  TIP3      H2             35.4428587052       15.7401994058        7.3887498743  SOLV      9002            0.0000000000
     27121      9014  TIP3      OH2            34.4228568704       11.7250685197        6.3611896854  SOLV      9003            0.0000000000
     27122      9014  TIP3      H1             34.0151907024       12.0547451003        5.5524523508  SOLV      9003            0.0000000000
     27123      9014  TIP3      H2             34.2013943014       10.7681361643        6.3010458202  SOLV      9003            0.0000000000
     27124      9015  TIP3      OH2            34.5899573686       14.4334172647       11.5892253266  SOLV      9004            0.0000000000
     27125      9015  TIP3      H1             34.6511807150       13.4839894077       11.3757609041  SOLV      9004            0.0000000000
     27126      9015  TIP3      H2             34.4408520852       14.4118929415       12.5623607884  SOLV      9004            0.0000000000
     27127      9016  TIP3      OH2            20.7686348524       15.1933563535       19.3409444306  SOLV      9005            0.0000000000
     27128      9016  TIP3      H1             20.7243671647       14.8811983429       18.4127586319  SOLV      9005            0.0000000000
     27129      9016  TIP3      H2             21.7457691594       15.1806413235       19.4840032269  SOLV      9005            0.0000000000
     27130      9017  TIP3      OH2            33.8800856492        9.0774786828        6.2674270580  SOLV      9006            0.0000000000
     27131      9017  TIP3      H1             34.6033608802        8.7077869939        6.8055275933  SOLV      9006            0.0000000000
     27132      9017  TIP3      H2             33.1512645951        8.4440940319        6.3809813388  SOLV      9006            0.0000000000
     27133      9018  TIP3      OH2            34.5844512300       11.6941004073       10.7261337905  SOLV      9007            0.0000000000
     27134      9018  TIP3      H1             34.9539767958       10.7914774713       10.8775858161  SOLV      9007            0.0000000000
     27135      9018  TIP3      H2             35.1444910940       11.9816866936        9.9785932408  SOLV      9007            0.0000000000
     27136      9019  TIP3      OH2            22.8894498466       11.9438878946       25.8855765598  SOLV      9008            0.0000000000
     27137      9019  TIP3      H1             23.8715290452       11.9359671168       25.9728828450  SOLV      9008            0.0000000000
     27138      9019  TIP3      H2             22.6844241178       11.0904985897       26.3143576834  SOLV      9008            0.0000000000
     27139      9020  TIP3      OH2            35.5039696239        9.1764251278       11.3178963420  SOLV      9009            0.0000000000
     27140      9020  TIP3      H1             36.1111937357        8.9070630832       12.0300102752  SOLV      9009            0.0000000000
     27141      9020  TIP3      H2             34.9432692823        8.3758500746       11.2200814941  SOLV      9009            0.0000000000
     27142      9021  TIP3      OH2            22.3172722775        8.7172084952       19.5327023497  SOLV      9010            0.0000000000
     27143      9021  TIP3      H1             22.9738078030        7.9793575917       19.5945366337  SOLV      9010            0.0000000000
     27144      9021  TIP3      H2             22.9048369483        9.4380047186       19.2849077506  SOLV      9010            0.0000000000
     27145      9022  TIP3      OH2            20.5771787519       11.7146868033       20.0801889421  SOLV      9011            0.0000000000
     27146      9022  TIP3      H1             21.0154205376       11.7750753718       19.2085794693  SOLV      9011            0.0000000000
     27147      9022  TIP3      H2             20.8408062067       12.5463767899       20.4954464980  SOLV      9011            0.0000000000
     27148      9023  TIP3      OH2            36.3614043347        8.5354117366        7.6185732178  SOLV      9012            0.0000000000
     27149      9023  TIP3      H1             36.6849327057        7.8325778681        7.0106206489  SOLV      9012            0.0000000000
     27150      9023  TIP3      H2             37.0386560536        9.2275850098        7.4966175279  SOLV      9012            0.0000000000
     27151      9024  TIP3      OH2            20.4772652713        6.7426770836       15.1100315509  SOLV      9013            0.0000000000
     27152      9024  TIP3      H1             19.5520206857        6.6799289871       15.4053044003  SOLV      9013            0.0000000000
     27153      9024  TIP3      H2             20.3975989354        7.3440088130       14.3391992886  SOLV      9013            0.0000000000
     27154      9025  TIP3      OH2            22.6449150651        7.5229014383       23.1997014044  SOLV      9014            0.0000000000
     27155      9025  TIP3      H1             22.1588464410        7.5093839731       24.0384712785  SOLV      9014            0.0000000000
     27156      9025  TIP3      H2             21.9799825472        7.9277600580       22.6079184819  SOLV      9014            0.0000000000
     27157      9026  TIP3      OH2            20.6193283833       22.7247295591       17.1649603534  SOLV      9015            0.0000000000
     27158      9026  TIP3      H1             20.8655378037       22.3992649160       18.0597541032  SOLV      9015            0.0000000000
     27159      9026  TIP3      H2             21.2748604747       22.2273120388       16.6234199412  SOLV      9015            0.0000000000
     27160      9027  TIP3      OH2            22.3263225581       21.2099337834       15.7644562499  SOLV      9016            0.0000000000
     27161      9027  TIP3      H1             22.5262880467       20.4029275952       16.2927870005  SOLV      9016            0.0000000000
     27162      9027  TIP3      H2             23.2418972154       21.5677923239       15.6774961988  SOLV      9016            0.0000000000
     27163      9028  TIP3      OH2            24.8892108367       21.9167580898       15.8977998260  SOLV      9017            0.0000000000
     27164      9028  TIP3      H1             25.3350359764       21.1000900207       16.2007325594  SOLV      9017            0.0000000000
     27165      9028  TIP3      H2             25.4829134553       22.6340841446       16.1642556547  SOLV      9017            0.0000000000
     27166      9029  TIP3      OH2            31.1684806107        8.8673785294       16.7699186680  SOLV      9018            0.0000000000
     27167      9029  TIP3      H1             30.6011587836        8.2790557332       17.3008909332  SOLV      9018            0.0000000000
     27168      9029  TIP3      H2             31.6684571515        8.2378727642       16.2302797250  SOLV      9018            0.0000000000
     27169      9030  TIP3      OH2            36.3515555926        8.0010532997       15.8489803306  SOLV      9019            0.0000000000
     27170      9030  TIP3      H1             36.5518253540        8.0030228742       14.8841645363  SOLV      9019            0.0000000000
     27171      9030  TIP3      H2             35.3866927389        7.7922703353       15.8062122173  SOLV      9019            0.0000000000
     27172      9031  TIP3      OH2            37.3636300766        8.9322504023       13.5176771967  SOLV      9020            0.0000000000
     27173      9031  TIP3      H1             37.9129835125        8.2232992362       13.0945480976  SOLV      9020            0.0000000000
     27174      9031  TIP3      H2             37.8558612431        9.7202781289       13.1847869263  SOLV      9020            0.0000000000
     27175      9032  TIP3      OH2            23.5365665739        5.9921017720       16.7754614568  SOLV      9021            0.0000000000
     27176      9032  TIP3      H1             22.6088050770        5.6689599509       16.8220112093  SOLV      9021            0.0000000000
     27177      9032  TIP3      H2             24.0087345837        5.1326491487       16.7348687929  SOLV      9021            0.0000000000
     27178      9033  TIP3      OH2            21.4733044858        4.7043506393       13.3348713187  SOLV      9022            0.0000000000
     27179      9033  TIP3      H1             21.7197962234        5.2559595305       12.5717184265  SOLV      9022            0.0000000000
     27180      9033  TIP3      H2             21.1837583617        5.3738236682       13.9872022798  SOLV      9022            0.0000000000
     27181      9034  TIP3      OH2            27.9818952753        6.3254115465       15.6122063030  SOLV      9023            0.0000000000
     27182      9034  TIP3      H1             28.5748637999        6.7875818548       14.9983857313  SOLV      9023            0.0000000000
     27183      9034  TIP3      H2             28.2784616334        6.6751987192       16.4691193205  SOLV      9023            0.0000000000
     27184      9035  TIP3      OH2            33.6359513414        7.6841559685       15.3249681874  SOLV      9024            0.0000000000
     27185      9035  TIP3      H1             33.5041528267        7.1873191907       14.5069254785  SOLV      9024            0.0000000000
     27186      9035  TIP3      H2             33.4199964175        6.9906416434       15.9943270788  SOLV      9024            0.0000000000
     27187      9036  TIP3      OH2            33.7590852514        7.0342850714       11.1133201804  SOLV      9025            0.0000000000
     27188      9036  TIP3      H1             32.8692580683        7.4195196296       11.2017838463  SOLV      9025            0.0000000000
     27189      9036  TIP3      H2             33.6201988251        6.1558407116       11.5309953345  SOLV      9025            0.0000000000
     27190      9037  TIP3      OH2            18.5826628028       20.4604364082       11.0440470985  SOLV      9026            0.0000000000
     27191      9037  TIP3      H1             17.7269879237       20.1084326048       10.7355191199  SOLV      9026            0.0000000000
     27192      9037  TIP3      H2             18.4770667818       21.3929249845       10.7809350810  SOLV      9026            0.0000000000
     27193      9038  TIP3      OH2            22.5812540819        6.1786991256       10.9070552237  SOLV      9027            0.0000000000
     27194      9038  TIP3      H1             23.0187588694        5.5448845211       10.3037219658  SOLV      9027            0.0000000000
     27195      9038  TIP3      H2             23.3486265742        6.6929437050       11.2260845097  SOLV      9027            0.0000000000
     27196      9039  TIP3      OH2            27.6056285272        8.1139655920       11.9369113435  SOLV      9028            0.0000000000
     27197      9039  TIP3      H1             28.2226033280        7.6280163508       12.5094411986  SOLV      9028            0.0000000000
     27198      9039  TIP3      H2             27.8259177046        9.0381660951       12.1928424654  SOLV      9028            0.0000000000
     27199      9040  TIP3      OH2            26.2664316663       22.2391346389        6.9350660416  SOLV      9029            0.0000000000
     27200      9040  TIP3      H1             27.1556749822       22.4303733793        6.5675592820  SOLV      9029            0.0000000000
     27201      9040  TIP3      H2             26.0260263008       21.4996844697        6.3310936288  SOLV      9029            0.0000000000
     27202      9041  TIP3      OH2            33.2464792880       23.1803115473        7.6367488881  SOLV      9030            0.0000000000
     27203      9041  TIP3      H1             33.0553301361       22.2186534115        7.6259348780  SOLV      9030            0.0000000000
     27204      9041  TIP3      H2             32.7491949097       23.4723832783        6.8473711228  SOLV      9030            0.0000000000
     27205      9042  TIP3      OH2            25.5597943836        8.7646131202       25.6183393083  SOLV      9031            0.0000000000
     27206      9042  TIP3      H1             25.4182756012        8.1194642706       26.3250290276  SOLV      9031            0.0000000000
     27207      9042  TIP3      H2             26.5391597758        8.7557364268       25.5738845327  SOLV      9031            0.0000000000
     27208      9043  TIP3      OH2            27.9155489692        7.4013691098       26.4772453458  SOLV      9032            0.0000000000
     27209      9043  TIP3      H1             28.7783025538        7.5445452477       26.0488226384  SOLV      9032            0.0000000000
     27210      9043  TIP3      H2             28.1359028037        7.3192610641       27.4091918635  SOLV      9032            0.0000000000
     27211      9044  TIP3      OH2            19.3464343711       20.6295609902        7.4349107049  SOLV      9033            0.0000000000
     27212      9044  TIP3      H1             19.3704934683       20.7760346863        8.3904743741  SOLV      9033            0.0000000000
     27213      9044  TIP3      H2             20.2128772247       20.1875772208        7.2726048463  SOLV      9033            0.0000000000
     27214      9045  TIP3      OH2            37.8830905790       13.6632200472       10.0256311125  SOLV      9034            0.0000000000
     27215      9045  TIP3      H1             37.7145778938       14.6073813381        9.8825183012  SOLV      9034            0.0000000000
     27216      9045  TIP3      H2             37.2206902525       13.2594074201        9.4337615077  SOLV      9034            0.0000000000
     27217      9046  TIP3      OH2            36.8402494401       19.0610790350        7.2040288811  SOLV      9035            0.0000000000
     27218      9046  TIP3      H1             36.5538566377       19.1662837321        6.2782121941  SOLV      9035            0.0000000000
     27219      9046  TIP3      H2             36.3512535479       19.8018812436        7.6487478384  SOLV      9035            0.0000000000
     27220      9047  TIP3      OH2            38.8643152829       10.9522472507       12.5236605219  SOLV      9036            0.0000000000
     27221      9047  TIP3      H1             39.3517519285       11.7755410203       12.2749445413  SOLV      9036            0.0000000000
     27222      9047  TIP3      H2             38.7891775847       10.5601644371       11.6319930245  SOLV      9036            0.0000000000
     27223      9048  TIP3      OH2            38.1257927209       10.8032842192        7.7121453307  SOLV      9037            0.0000000000
     27224      9048  TIP3      H1             38.5019083806       11.2281082170        6.9093356834  SOLV      9037            0.0000000000
     27225      9048  TIP3      H2             37.4946733132       11.5025535863        7.9677424428  SOLV      9037            0.0000000000
     27226      9049  TIP3      OH2            40.2086841964       12.9685143247       11.3242307472  SOLV      9038            0.0000000000
     27227      9049  TIP3      H1             39.4226403144       13.3414366439       10.8687425442  SOLV      9038            0.0000000000
     27228      9049  TIP3      H2             40.9011655205       13.0976595887       10.6486909194  SOLV      9038            0.0000000000
     27229      9050  TIP3      OH2            41.7908328037       13.4538102275        4.7212467719  SOLV      9039            0.0000000000
     27230      9050  TIP3      H1             41.0439869002       13.0233111270        5.1566929399  SOLV      9039            0.0000000000
     27231      9050  TIP3      H2             41.5190678604       13.3729092564        3.7924181279  SOLV      9039            0.0000000000
     27232      9051  TIP3      OH2            37.9895835561       14.8511717387        5.2287840656  SOLV      9040            0.0000000000
     27233      9051  TIP3      H1             38.4299035967       15.7196137960        5.3886229313  SOLV      9040            0.0000000000
     27234      9051  TIP3      H2             37.2280299482       14.9342015366        5.8427342019  SOLV      9040            0.0000000000
     27235      9052  TIP3      OH2            38.8473451494       17.3488818251        5.7999299034  SOLV      9041            0.0000000000
     27236      9052  TIP3      H1             38.4030761904       17.7510317111        6.5615881754  SOLV      9041            0.0000000000
     27237      9052  TIP3      H2             39.1703572822       18.1278410432        5.3170383757  SOLV      9041            0.0000000000
     27238      9053  TIP3      OH2            39.3297454462       19.5551147587        4.1208632703  SOLV      9042            0.0000000000
     27239      9053  TIP3      H1             39.4179310837       20.3576138388        3.5936567178  SOLV      9042            0.0000000000
     27240      9053  TIP3      H2             39.7590578628       18.8996985286        3.5144691625  SOLV      9042            0.0000000000
     27241      9054  TIP3      OH2            38.6436985727       12.2509932224        5.4826942218  SOLV      9043            0.0000000000
     27242      9054  TIP3      H1             38.5333308526       13.2276650098        5.4616965965  SOLV      9043            0.0000000000
     27243      9054  TIP3      H2             37.9956734137       11.9872680576        4.8147978859  SOLV      9043            0.0000000000
     27244      9055  TIP3      OH2            40.4475474187       17.7155324800        2.5302406218  SOLV      9044            0.0000000000
     27245      9055  TIP3      H1             40.7278615512       16.9178493114        3.0098259785  SOLV      9044            0.0000000000
     27246      9055  TIP3      H2             41.0494387987       17.6371977241        1.7734904166  SOLV      9044            0.0000000000
     27247      9056  TIP3      OH2            36.4863476232       19.0543674535        4.3175809779  SOLV      9045            0.0000000000
     27248      9056  TIP3      H1             37.4546256872       19.1647780746        4.2769925819  SOLV      9045            0.0000000000
     27249      9056  TIP3      H2             36.3801192016       18.1439633664        3.9574325781  SOLV      9045            0.0000000000
     27250      9057  TIP3      OH2            38.3350348614        9.4938108953       10.0926709129  SOLV      9046            0.0000000000
     27251      9057  TIP3      H1             37.3951311188        9.2572435670       10.1011103462  SOLV      9046            0.0000000000
     27252      9057  TIP3      H2             38.3952461181       10.0420948816        9.2817154867  SOLV      9046            0.0000000000
     27253      9058  TIP3      OH2            41.5474917824        8.3542333680       12.2684818325  SOLV      9047            0.0000000000
     27254      9058  TIP3      H1             40.6269480089        8.4929028756       12.0054830796  SOLV      9047            0.0000000000
     27255      9058  TIP3      H2             41.9404261653        9.2276572713       11.9882076533  SOLV      9047            0.0000000000
     27256      9059  TIP3      OH2            39.1801078211        7.3381361221        8.2618145456  SOLV      9048            0.0000000000
     27257      9059  TIP3      H1             39.4482942708        7.7880376453        7.4374338278  SOLV      9048            0.0000000000
     27258      9059  TIP3      H2             39.0640817786        8.0759578693        8.8851689004  SOLV      9048            0.0000000000
     27259      9060  TIP3      OH2            39.9499827740        8.8191029313        5.9602658775  SOLV      9049            0.0000000000
     27260      9060  TIP3      H1             40.8755996241        8.5405180916        5.7705324050  SOLV      9049            0.0000000000
     27261      9060  TIP3      H2             40.0978336658        9.6688222989        6.3923673553  SOLV      9049            0.0000000000
     27262      9061  TIP3      OH2            37.3175295133       23.2740008714        2.4661776069  SOLV      9050            0.0000000000
     27263      9061  TIP3      H1             37.0547234356       23.5403760018        3.3621559419  SOLV      9050            0.0000000000
     27264      9061  TIP3      H2             37.8678134519       22.5030145586        2.6406934006  SOLV      9050            0.0000000000
     27265      9062  TIP3      OH2           -18.8521630266       22.0940104720       28.5369598562  SOLV      9051            0.0000000000
     27266      9062  TIP3      H1            -19.0297918506       23.0448102831       28.5418535039  SOLV      9051            0.0000000000
     27267      9062  TIP3      H2            -18.5226751443       21.9709408507       27.6279297178  SOLV      9051            0.0000000000
     27268      9063  TIP3      OH2           -22.8166853329       21.3828298146       26.2979112685  SOLV      9052            0.0000000000
     27269      9063  TIP3      H1            -22.6578311500       20.7671921593       27.0195625855  SOLV      9052            0.0000000000
     27270      9063  TIP3      H2            -22.2807486523       22.1414559795       26.5680505955  SOLV      9052            0.0000000000
     27271      9064  TIP3      OH2           -21.0623545955       20.8166017092       30.1585069592  SOLV      9053            0.0000000000
     27272      9064  TIP3      H1            -21.9677233864       21.0444115806       29.8596093142  SOLV      9053            0.0000000000
     27273      9064  TIP3      H2            -20.4947827740       21.3484850102       29.5724919457  SOLV      9053            0.0000000000
     27274      9065  TIP3      OH2           -27.5753082741       17.1047664799       30.2977845762  SOLV      9054            0.0000000000
     27275      9065  TIP3      H1            -27.5110255504       16.1607485163       30.0683705327  SOLV      9054            0.0000000000
     27276      9065  TIP3      H2            -28.4860665514       17.2228976562       29.9732667375  SOLV      9054            0.0000000000
     27277      9066  TIP3      OH2           -28.4897153183       22.9298020884       19.9084371272  SOLV      9055            0.0000000000
     27278      9066  TIP3      H1            -27.9097516031       23.1511464492       20.6549726489  SOLV      9055            0.0000000000
     27279      9066  TIP3      H2            -27.8917467727       22.3556218533       19.3801256976  SOLV      9055            0.0000000000
     27280      9067  TIP3      OH2           -21.6806926146       16.8282684705       21.0364180180  SOLV      9056            0.0000000000
     27281      9067  TIP3      H1            -22.4841437824       17.0679959215       21.5425269622  SOLV      9056            0.0000000000
     27282      9067  TIP3      H2            -21.5310021326       17.6491707100       20.5212954209  SOLV      9056            0.0000000000
     27283      9068  TIP3      OH2           -23.7295253245       30.4385006621       16.1400098850  SOLV      9057            0.0000000000
     27284      9068  TIP3      H1            -23.5774784298       31.3958623733       16.2644426327  SOLV      9057            0.0000000000
     27285      9068  TIP3      H2            -22.8064332849       30.1110096381       16.1982445779  SOLV      9057            0.0000000000
     27286      9069  TIP3      OH2           -26.2774127410       24.8741590537       17.9249739566  SOLV      9058            0.0000000000
     27287      9069  TIP3      H1            -26.3292180146       24.5183396441       17.0201773157  SOLV      9058            0.0000000000
     27288      9069  TIP3      H2            -25.4091312448       25.3081899351       17.9069890371  SOLV      9058            0.0000000000
     27289      9070  TIP3      OH2           -29.0757583404       18.7164235850       20.6044060525  SOLV      9059            0.0000000000
     27290      9070  TIP3      H1            -28.8322937904       18.7149535656       21.5549159892  SOLV      9059            0.0000000000
     27291      9070  TIP3      H2            -29.6243103077       17.9172417748       20.6066241162  SOLV      9059            0.0000000000
     27292      9071  TIP3      OH2           -25.6730810617       22.7669432058       26.0219196733  SOLV      9060            0.0000000000
     27293      9071  TIP3      H1            -26.4388526507       23.2242886994       25.6283261719  SOLV      9060            0.0000000000
     27294      9071  TIP3      H2            -25.2089925761       23.5434923680       26.4448029671  SOLV      9060            0.0000000000
     27295      9072  TIP3      OH2           -23.7918589821       21.0533441893       29.5114913764  SOLV      9061            0.0000000000
     27296      9072  TIP3      H1            -24.6135256207       21.5958004258       29.5480548022  SOLV      9061            0.0000000000
     27297      9072  TIP3      H2            -24.0628932095       20.3549867557       28.9021903636  SOLV      9061            0.0000000000
     27298      9073  TIP3      OH2           -26.3191594153       19.3960647058       20.7785773254  SOLV      9062            0.0000000000
     27299      9073  TIP3      H1            -27.2863522697       19.4846955159       20.7245466979  SOLV      9062            0.0000000000
     27300      9073  TIP3      H2            -26.0310302941       20.3349145959       20.8374496846  SOLV      9062            0.0000000000
     27301      9074  TIP3      OH2           -25.4723804148       21.9721629309       20.9419089476  SOLV      9063            0.0000000000
     27302      9074  TIP3      H1            -24.5462155329       22.0592758252       21.1852573421  SOLV      9063            0.0000000000
     27303      9074  TIP3      H2            -25.8925326159       22.5462446873       21.6280661919  SOLV      9063            0.0000000000
     27304      9075  TIP3      OH2           -21.3887321941       23.1264252097       20.0905178007  SOLV      9064            0.0000000000
     27305      9075  TIP3      H1            -21.9756898089       22.6842311971       19.4322133158  SOLV      9064            0.0000000000
     27306      9075  TIP3      H2            -21.4208699454       24.0288108051       19.7031674787  SOLV      9064            0.0000000000
     27307      9076  TIP3      OH2           -23.6268691703       31.1800440520       18.9684667601  SOLV      9065            0.0000000000
     27308      9076  TIP3      H1            -24.2126588379       31.2797317163       19.7423611935  SOLV      9065            0.0000000000
     27309      9076  TIP3      H2            -24.1018220942       30.5637642342       18.3976115138  SOLV      9065            0.0000000000
     27310      9077  TIP3      OH2           -26.7322606775       28.6263684138       18.2600902025  SOLV      9066            0.0000000000
     27311      9077  TIP3      H1            -26.1283090456       28.3126879781       18.9743308107  SOLV      9066            0.0000000000
     27312      9077  TIP3      H2            -27.5875797122       28.2946166817       18.5981928690  SOLV      9066            0.0000000000
     27313      9078  TIP3      OH2           -23.4082980226       33.1883327623       16.3804343200  SOLV      9067            0.0000000000
     27314      9078  TIP3      H1            -23.3338799384       33.8001814102       15.6321305608  SOLV      9067            0.0000000000
     27315      9078  TIP3      H2            -24.3094022040       33.3534981022       16.6825342539  SOLV      9067            0.0000000000
     27316      9079  TIP3      OH2           -25.1190581997       27.8021302918       20.2807261021  SOLV      9068            0.0000000000
     27317      9079  TIP3      H1            -25.2005008513       27.0396909736       20.8593310224  SOLV      9068            0.0000000000
     27318      9079  TIP3      H2            -24.1406907516       27.8767123189       20.2079155906  SOLV      9068            0.0000000000
     27319      9080  TIP3      OH2           -28.6001881038       20.8028403282       24.6370930856  SOLV      9069            0.0000000000
     27320      9080  TIP3      H1            -28.2704985278       21.4636349066       24.0054148274  SOLV      9069            0.0000000000
     27321      9080  TIP3      H2            -28.9212980280       21.3886702039       25.3538374781  SOLV      9069            0.0000000000
     27322      9081  TIP3      OH2           -26.7939425781       18.5071026422       25.2718786734  SOLV      9070            0.0000000000
     27323      9081  TIP3      H1            -26.8541457792       19.0100173063       26.0956914466  SOLV      9070            0.0000000000
     27324      9081  TIP3      H2            -27.3889432539       19.0185919533       24.6892942474  SOLV      9070            0.0000000000
     27325      9082  TIP3      OH2           -23.5651720259       24.4735435328       26.0904252390  SOLV      9071            0.0000000000
     27326      9082  TIP3      H1            -23.9329961769       25.1334254623       26.7341214990  SOLV      9071            0.0000000000
     27327      9082  TIP3      H2            -22.8076204600       24.1256087901       26.5981502725  SOLV      9071            0.0000000000
     27328      9083  TIP3      OH2           -27.1687642342       30.7135903597       16.3158737093  SOLV      9072            0.0000000000
     27329      9083  TIP3      H1            -26.7393050268       30.2027548831       17.0240217062  SOLV      9072            0.0000000000
     27330      9083  TIP3      H2            -26.5150837289       30.7007296471       15.5933577794  SOLV      9072            0.0000000000
     27331      9084  TIP3      OH2           -23.7740128289       25.7663214462       16.8472321193  SOLV      9073            0.0000000000
     27332      9084  TIP3      H1            -23.9491060304       25.3608963189       15.9744902098  SOLV      9073            0.0000000000
     27333      9084  TIP3      H2            -24.1416025351       26.6633473096       16.6694411238  SOLV      9073            0.0000000000
     27334      9085  TIP3      OH2           -22.3939598927       27.6744344271       20.0844581393  SOLV      9074            0.0000000000
     27335      9085  TIP3      H1            -21.7780793439       28.3707538572       19.7846489904  SOLV      9074            0.0000000000
     27336      9085  TIP3      H2            -21.9120344140       27.3320392812       20.8724402370  SOLV      9074            0.0000000000
     27337      9086  TIP3      OH2           -21.0175751777       26.3750312127       22.0329545033  SOLV      9075            0.0000000000
     27338      9086  TIP3      H1            -21.6299299015       25.8888561121       22.6314831464  SOLV      9075            0.0000000000
     27339      9086  TIP3      H2            -20.3880962695       26.7840954409       22.6610811325  SOLV      9075            0.0000000000
     27340      9087  TIP3      OH2           -21.7162941405       25.4410645734       18.6078171959  SOLV      9076            0.0000000000
     27341      9087  TIP3      H1            -22.4429058340       25.4500006979       17.9429647192  SOLV      9076            0.0000000000
     27342      9087  TIP3      H2            -21.9988922119       26.1986398158       19.1626806346  SOLV      9076            0.0000000000
     27343      9088  TIP3      OH2           -22.9323283690       22.1479706014       18.0858070263  SOLV      9077            0.0000000000
     27344      9088  TIP3      H1            -23.4760177619       22.5338734186       17.3904969004  SOLV      9077            0.0000000000
     27345      9088  TIP3      H2            -23.2082539943       21.2066224105       18.0325778381  SOLV      9077            0.0000000000
     27346      9089  TIP3      OH2           -22.6610354676       24.7944236680       23.5081737749  SOLV      9078            0.0000000000
     27347      9089  TIP3      H1            -22.9651038607       23.9320074297       23.2013328900  SOLV      9078            0.0000000000
     27348      9089  TIP3      H2            -22.9934194014       24.8113817142       24.4291475725  SOLV      9078            0.0000000000
     27349      9090  TIP3      OH2           -23.6030515040       19.5030244309       17.9988972314  SOLV      9079            0.0000000000
     27350      9090  TIP3      H1            -22.8433678471       19.1992983748       18.5349740873  SOLV      9079            0.0000000000
     27351      9090  TIP3      H2            -24.3060275332       18.8706316287       18.2190536446  SOLV      9079            0.0000000000
     27352      9091  TIP3      OH2           -23.2635422278       22.0022312866       22.8599042789  SOLV      9080            0.0000000000
     27353      9091  TIP3      H1            -22.8259048664       21.1164385001       22.9548175321  SOLV      9080            0.0000000000
     27354      9091  TIP3      H2            -22.6778798570       22.3523220224       22.1634655259  SOLV      9080            0.0000000000
     27355      9092  TIP3      OH2           -21.3426476290       23.7879865656       27.5804853645  SOLV      9081            0.0000000000
     27356      9092  TIP3      H1            -20.4567731382       24.0507050272       27.2412761494  SOLV      9081            0.0000000000
     27357      9092  TIP3      H2            -21.4464594890       24.4095508486       28.3186960525  SOLV      9081            0.0000000000
     27358      9093  TIP3      OH2           -21.9420382965       19.5761916139       22.9842597064  SOLV      9082            0.0000000000
     27359      9093  TIP3      H1            -21.4272612705       19.4030270684       23.7998804544  SOLV      9082            0.0000000000
     27360      9093  TIP3      H2            -22.5364524887       18.7975184580       22.9704983345  SOLV      9082            0.0000000000
     27361      9094  TIP3      OH2           -21.1633713113       18.9034287506       19.2816934026  SOLV      9083            0.0000000000
     27362      9094  TIP3      H1            -20.7645886393       18.2158914092       18.7090288027  SOLV      9083            0.0000000000
     27363      9094  TIP3      H2            -20.4914764434       19.6135239035       19.2574743023  SOLV      9083            0.0000000000
     27364      9095  TIP3      OH2           -18.4455641839       20.2189189750       32.0001235893  SOLV      9084            0.0000000000
     27365      9095  TIP3      H1            -19.3919621390       20.1567857549       31.7988816482  SOLV      9084            0.0000000000
     27366      9095  TIP3      H2            -18.1808774157       19.2760164002       32.0164320367  SOLV      9084            0.0000000000
     27367      9096  TIP3      OH2           -26.6027583787       18.9686177603       28.3680008473  SOLV      9085            0.0000000000
     27368      9096  TIP3      H1            -26.7829227827       18.0828595750       28.7342116069  SOLV      9085            0.0000000000
     27369      9096  TIP3      H2            -25.7374214417       18.8277684106       27.9400802397  SOLV      9085            0.0000000000
     27370      9097  TIP3      OH2           -21.2731570374       18.1735951612       27.4805250461  SOLV      9086            0.0000000000
     27371      9097  TIP3      H1            -20.9008737500       18.6510210697       26.7057337200  SOLV      9086            0.0000000000
     27372      9097  TIP3      H2            -22.2329553419       18.3032710816       27.3660166984  SOLV      9086            0.0000000000
     27373      9098  TIP3      OH2           -20.2748979012       19.1200961203       25.1378176291  SOLV      9087            0.0000000000
     27374      9098  TIP3      H1            -19.5507796210       18.5790999934       24.7527020933  SOLV      9087            0.0000000000
     27375      9098  TIP3      H2            -19.9116668195       20.0212040754       24.9657650868  SOLV      9087            0.0000000000
     27376      9099  TIP3      OH2           -29.1963198642       16.5705019494       28.1899916077  SOLV      9088            0.0000000000
     27377      9099  TIP3      H1            -29.1610674661       17.0260356526       27.3276244333  SOLV      9088            0.0000000000
     27378      9099  TIP3      H2            -30.1443327553       16.4053271776       28.2839533623  SOLV      9088            0.0000000000
     27379      9100  TIP3      OH2           -24.0772301479       18.2135199334       27.2777309113  SOLV      9089            0.0000000000
     27380      9100  TIP3      H1            -24.1483049972       17.8139128873       26.3971249142  SOLV      9089            0.0000000000
     27381      9100  TIP3      H2            -24.2017811576       17.4222294133       27.8557365666  SOLV      9089            0.0000000000
     27382      9101  TIP3      OH2           -23.7402407773       17.4122366837       22.8007144451  SOLV      9090            0.0000000000
     27383      9101  TIP3      H1            -24.6602403654       17.5577947306       22.5363588259  SOLV      9090            0.0000000000
     27384      9101  TIP3      H2            -23.8353537684       16.6213030632       23.3735859691  SOLV      9090            0.0000000000
     27385      9102  TIP3      OH2           -28.8832103137       18.2117535187       23.2282570569  SOLV      9091            0.0000000000
     27386      9102  TIP3      H1            -29.3725784626       17.4736382721       23.6176845923  SOLV      9091            0.0000000000
     27387      9102  TIP3      H2            -29.3813980033       18.9770067246       23.5690172064  SOLV      9091            0.0000000000
     27388      9103  TIP3      OH2            -9.0812285428       29.0872642569       19.1107853177  SOLV      9092            0.0000000000
     27389      9103  TIP3      H1             -9.4078320323       29.9857176319       18.8955703403  SOLV      9092            0.0000000000
     27390      9103  TIP3      H2             -9.8204619618       28.5558291142       18.7654720643  SOLV      9092            0.0000000000
     27391      9104  TIP3      OH2            -9.1477740717       29.1377645301       23.0144226799  SOLV      9093            0.0000000000
     27392      9104  TIP3      H1             -8.7667552595       28.8831552693       23.8794434470  SOLV      9093            0.0000000000
     27393      9104  TIP3      H2             -9.5112762748       28.2907415015       22.7088258949  SOLV      9093            0.0000000000
     27394      9105  TIP3      OH2           -15.8805930913       28.0657238518       26.6785329139  SOLV      9094            0.0000000000
     27395      9105  TIP3      H1            -15.7021050581       27.3142273498       27.2797236183  SOLV      9094            0.0000000000
     27396      9105  TIP3      H2            -15.0866829345       28.5996865642       26.8005196101  SOLV      9094            0.0000000000
     27397      9106  TIP3      OH2            -6.6595128903       32.1489059982       19.8032246991  SOLV      9095            0.0000000000
     27398      9106  TIP3      H1             -6.7423154742       31.4391635556       20.4522964867  SOLV      9095            0.0000000000
     27399      9106  TIP3      H2             -6.2907269590       32.8777434956       20.3374663217  SOLV      9095            0.0000000000
     27400      9107  TIP3      OH2           -15.9704019534       31.9161306549       24.2705765937  SOLV      9096            0.0000000000
     27401      9107  TIP3      H1            -16.1056664012       30.9716263454       24.0153296194  SOLV      9096            0.0000000000
     27402      9107  TIP3      H2            -15.2008878944       32.1348070586       23.7007555986  SOLV      9096            0.0000000000
     27403      9108  TIP3      OH2           -19.3011027100       24.1163370640       21.6285221967  SOLV      9097            0.0000000000
     27404      9108  TIP3      H1            -19.7456151481       24.9622910775       21.8203446773  SOLV      9097            0.0000000000
     27405      9108  TIP3      H2            -20.0342483579       23.6370597764       21.1975586644  SOLV      9097            0.0000000000
     27406      9109  TIP3      OH2           -18.6127872989       26.9621713518       23.2223797608  SOLV      9098            0.0000000000
     27407      9109  TIP3      H1            -18.1940812377       26.1754797858       23.6344596667  SOLV      9098            0.0000000000
     27408      9109  TIP3      H2            -18.0247034720       27.1534322205       22.4841293176  SOLV      9098            0.0000000000
     27409      9110  TIP3      OH2           -10.2560520976       36.6885744340       19.9884469889  SOLV      9099            0.0000000000
     27410      9110  TIP3      H1             -9.8873809220       36.0430158147       19.3523248044  SOLV      9099            0.0000000000
     27411      9110  TIP3      H2             -9.9103640894       36.3403273907       20.8219230082  SOLV      9099            0.0000000000
     27412      9111  TIP3      OH2           -11.0018389453       31.3646074226       23.2836591618  SOLV      9100            0.0000000000
     27413      9111  TIP3      H1            -10.5474613697       30.5840560357       22.9115823779  SOLV      9100            0.0000000000
     27414      9111  TIP3      H2            -10.2095403934       31.8510111569       23.5990982029  SOLV      9100            0.0000000000
     27415      9112  TIP3      OH2            -0.9300865682       24.5322979699       23.4345662100  SOLV      9101            0.0000000000
     27416      9112  TIP3      H1             -0.6486783544       25.3698908437       23.8551037316  SOLV      9101            0.0000000000
     27417      9112  TIP3      H2             -0.7090312247       24.7053435118       22.5018127134  SOLV      9101            0.0000000000
     27418      9113  TIP3      OH2            -6.9994373540       26.3595349239       23.7152944136  SOLV      9102            0.0000000000
     27419      9113  TIP3      H1             -6.5537494055       25.5218530906       23.9443314250  SOLV      9102            0.0000000000
     27420      9113  TIP3      H2             -7.3120538757       26.1583633910       22.8123265207  SOLV      9102            0.0000000000
     27421      9114  TIP3      OH2           -13.5455771418       22.9414734791       23.3683425767  SOLV      9103            0.0000000000
     27422      9114  TIP3      H1            -13.7565376365       23.6706756711       22.7483830789  SOLV      9103            0.0000000000
     27423      9114  TIP3      H2            -14.0390385167       22.2095600133       22.9370689299  SOLV      9103            0.0000000000
     27424      9115  TIP3      OH2            -6.6143374860       23.8896837493       19.5802130811  SOLV      9104            0.0000000000
     27425      9115  TIP3      H1             -5.9101672277       23.7341826985       20.2521782592  SOLV      9104            0.0000000000
     27426      9115  TIP3      H2             -6.0697025010       24.2191526170       18.8403962739  SOLV      9104            0.0000000000
     27427      9116  TIP3      OH2           -17.2978526395       24.9079718541       24.4700777948  SOLV      9105            0.0000000000
     27428      9116  TIP3      H1            -16.4695811427       24.7579462240       24.9631315381  SOLV      9105            0.0000000000
     27429      9116  TIP3      H2            -17.1226908523       24.3600169668       23.6749829806  SOLV      9105            0.0000000000
     27430      9117  TIP3      OH2           -12.8440671996       26.9068565836       22.3697575658  SOLV      9106            0.0000000000
     27431      9117  TIP3      H1            -11.9014942335       26.6615340581       22.4938655976  SOLV      9106            0.0000000000
     27432      9117  TIP3      H2            -13.2337905744       26.0612299692       22.0573936432  SOLV      9106            0.0000000000
     27433      9118  TIP3      OH2            -0.2241456983       26.6189656135       25.1764591242  SOLV      9107            0.0000000000
     27434      9118  TIP3      H1             -1.0631519398       27.0960510087       25.0035664188  SOLV      9107            0.0000000000
     27435      9118  TIP3      H2              0.1180519156       27.1101182854       25.9511530063  SOLV      9107            0.0000000000
     27436      9119  TIP3      OH2           -13.6065932462       22.7717481916       27.7095744156  SOLV      9108            0.0000000000
     27437      9119  TIP3      H1            -14.2045467536       23.1491898833       27.0357409036  SOLV      9108            0.0000000000
     27438      9119  TIP3      H2            -14.0997489641       22.9900343750       28.5274922997  SOLV      9108            0.0000000000
     27439      9120  TIP3      OH2           -10.2759062941       31.2472967459       17.8360718875  SOLV      9109            0.0000000000
     27440      9120  TIP3      H1            -10.6183296426       31.1625036293       16.9349555882  SOLV      9109            0.0000000000
     27441      9120  TIP3      H2            -10.7183838054       32.0674707233       18.1362533452  SOLV      9109            0.0000000000
     27442      9121  TIP3      OH2           -12.3264703627       30.4517968338       25.4312524179  SOLV      9110            0.0000000000
     27443      9121  TIP3      H1            -12.7123129681       31.2759589914       25.7762591237  SOLV      9110            0.0000000000
     27444      9121  TIP3      H2            -11.8592768167       30.7983428405       24.6367491080  SOLV      9110            0.0000000000
     27445      9122  TIP3      OH2            -4.6009291080       23.9365803022       21.3977381678  SOLV      9111            0.0000000000
     27446      9122  TIP3      H1             -4.7774879073       23.5315517341       22.2568679198  SOLV      9111            0.0000000000
     27447      9122  TIP3      H2             -4.0789815620       24.7233517984       21.6498861666  SOLV      9111            0.0000000000
     27448      9123  TIP3      OH2           -14.9464679536       23.8832082726       25.5617889930  SOLV      9112            0.0000000000
     27449      9123  TIP3      H1            -14.3601444658       24.6302128473       25.8311552129  SOLV      9112            0.0000000000
     27450      9123  TIP3      H2            -14.4216942046       23.5170671676       24.8136272365  SOLV      9112            0.0000000000
     27451      9124  TIP3      OH2           -20.3776214258       29.3662383869       18.9919669872  SOLV      9113            0.0000000000
     27452      9124  TIP3      H1            -20.8523822654       29.7060750105       18.2126695890  SOLV      9113            0.0000000000
     27453      9124  TIP3      H2            -20.0464678114       30.1877993829       19.3996398894  SOLV      9113            0.0000000000
     27454      9125  TIP3      OH2            -6.0563307596       34.4858165685       21.4468183549  SOLV      9114            0.0000000000
     27455      9125  TIP3      H1             -6.9265171819       34.5465454212       21.8924840407  SOLV      9114            0.0000000000
     27456      9125  TIP3      H2             -6.0298226361       35.3598208534       20.9925938794  SOLV      9114            0.0000000000
     27457      9126  TIP3      OH2            -3.0150479112       23.4624075365       25.0431419310  SOLV      9115            0.0000000000
     27458      9126  TIP3      H1             -3.8731933834       23.7893233218       24.7276295524  SOLV      9115            0.0000000000
     27459      9126  TIP3      H2             -2.3939718822       23.8357297799       24.3827512681  SOLV      9115            0.0000000000
     27460      9127  TIP3      OH2           -10.1212456294       19.9193169570       24.9111553614  SOLV      9116            0.0000000000
     27461      9127  TIP3      H1            -10.2955050494       18.9742614411       25.0863182657  SOLV      9116            0.0000000000
     27462      9127  TIP3      H2            -10.8862224570       20.3258275415       25.3748006692  SOLV      9116            0.0000000000
     27463      9128  TIP3      OH2            -9.0626651938       35.0232122768       18.0981717521  SOLV      9117            0.0000000000
     27464      9128  TIP3      H1             -8.5573275652       34.1850664914       17.9582240431  SOLV      9117            0.0000000000
     27465      9128  TIP3      H2             -8.4014205747       35.6533569579       17.7287691583  SOLV      9117            0.0000000000
     27466      9129  TIP3      OH2            -7.5978086868       32.8655441869       17.3113550399  SOLV      9118            0.0000000000
     27467      9129  TIP3      H1             -7.7972742079       32.0409664447       16.8509281975  SOLV      9118            0.0000000000
     27468      9129  TIP3      H2             -7.2063300749       32.5346272705       18.1520697891  SOLV      9118            0.0000000000
     27469      9130  TIP3      OH2            -3.7570951923       33.5996878842       24.8910130956  SOLV      9119            0.0000000000
     27470      9130  TIP3      H1             -3.8195703143       32.8178482706       24.2999680508  SOLV      9119            0.0000000000
     27471      9130  TIP3      H2             -3.8582870296       34.3366957188       24.2533948202  SOLV      9119            0.0000000000
     27472      9131  TIP3      OH2           -10.7733482472       27.6131362348       17.4711684445  SOLV      9120            0.0000000000
     27473      9131  TIP3      H1            -11.5618709563       28.1532928888       17.2615965269  SOLV      9120            0.0000000000
     27474      9131  TIP3      H2            -10.3246063527       27.5667236170       16.6072318400  SOLV      9120            0.0000000000
     27475      9132  TIP3      OH2           -11.2039239871       25.4851201198       14.5532378937  SOLV      9121            0.0000000000
     27476      9132  TIP3      H1            -10.5399065991       26.0144237364       15.0311208159  SOLV      9121            0.0000000000
     27477      9132  TIP3      H2            -10.6175954459       24.8518483035       14.0882600870  SOLV      9121            0.0000000000
     27478      9133  TIP3      OH2            -1.8415407183       29.9592386644       23.2766308295  SOLV      9122            0.0000000000
     27479      9133  TIP3      H1             -2.6392603489       30.5265146086       23.3275295894  SOLV      9122            0.0000000000
     27480      9133  TIP3      H2             -1.4556142621       30.2710640946       22.4303058925  SOLV      9122            0.0000000000
     27481      9134  TIP3      OH2            -7.2951142179       28.4469706024       17.1295733173  SOLV      9123            0.0000000000
     27482      9134  TIP3      H1             -7.8343347417       28.6675450054       17.9244378952  SOLV      9123            0.0000000000
     27483      9134  TIP3      H2             -6.4466832214       28.2000677619       17.5562616519  SOLV      9123            0.0000000000
     27484      9135  TIP3      OH2            -4.9758540817       28.7258432689       26.3419462719  SOLV      9124            0.0000000000
     27485      9135  TIP3      H1             -4.8910664533       29.5273645557       26.9057187343  SOLV      9124            0.0000000000
     27486      9135  TIP3      H2             -5.8165730797       28.9112242740       25.8871638565  SOLV      9124            0.0000000000
     27487      9136  TIP3      OH2           -14.9653348590       28.3667932632       21.3236926776  SOLV      9125            0.0000000000
     27488      9136  TIP3      H1            -15.3931970093       27.7973416088       20.6482347640  SOLV      9125            0.0000000000
     27489      9136  TIP3      H2            -14.2000521150       27.8202286751       21.6015677338  SOLV      9125            0.0000000000
     27490      9137  TIP3      OH2           -13.6386715647       32.4440148094       22.8557850813  SOLV      9126            0.0000000000
     27491      9137  TIP3      H1            -13.8227974610       32.3418400732       21.9067934513  SOLV      9126            0.0000000000
     27492      9137  TIP3      H2            -12.7630473987       32.0133650528       22.9408395075  SOLV      9126            0.0000000000
     27493      9138  TIP3      OH2           -13.5310410423       28.0350600240       24.7676011544  SOLV      9127            0.0000000000
     27494      9138  TIP3      H1            -13.2591458210       27.7203934229       23.8776288726  SOLV      9127            0.0000000000
     27495      9138  TIP3      H2            -13.0601298762       28.8877861657       24.8467707118  SOLV      9127            0.0000000000
     27496      9139  TIP3      OH2            -8.4292556143       34.6072733629       22.8692126359  SOLV      9128            0.0000000000
     27497      9139  TIP3      H1             -8.8762337395       35.0947446805       23.5694268716  SOLV      9128            0.0000000000
     27498      9139  TIP3      H2             -8.5007774314       33.6901419255       23.1987612124  SOLV      9128            0.0000000000
     27499      9140  TIP3      OH2            -8.9490883845       27.0380297363       15.4196266579  SOLV      9129            0.0000000000
     27500      9140  TIP3      H1             -8.3437160675       27.6379888631       15.9100236082  SOLV      9129            0.0000000000
     27501      9140  TIP3      H2             -8.6705116816       27.2231108484       14.4879491322  SOLV      9129            0.0000000000
     27502      9141  TIP3      OH2           -11.4667304141       33.7562001800       18.2536648613  SOLV      9130            0.0000000000
     27503      9141  TIP3      H1            -10.6140769336       34.2399153299       18.2303268365  SOLV      9130            0.0000000000
     27504      9141  TIP3      H2            -12.0464615753       34.3280284641       17.7425112561  SOLV      9130            0.0000000000
     27505      9142  TIP3      OH2            -3.7433505779       19.3880339838       15.9258408318  SOLV      9131            0.0000000000
     27506      9142  TIP3      H1             -4.5641933079       19.6231595928       16.4044881180  SOLV      9131            0.0000000000
     27507      9142  TIP3      H2             -3.5834698060       20.2084938362       15.4130283433  SOLV      9131            0.0000000000
     27508      9143  TIP3      OH2           -16.3289661157       26.8384690174       19.3882679467  SOLV      9132            0.0000000000
     27509      9143  TIP3      H1            -17.0211498434       27.2699857025       18.8430001260  SOLV      9132            0.0000000000
     27510      9143  TIP3      H2            -16.6765409666       25.9436236209       19.4704549953  SOLV      9132            0.0000000000
     27511      9144  TIP3      OH2            -5.7507955447       33.0762441090       11.4141968289  SOLV      9133            0.0000000000
     27512      9144  TIP3      H1             -5.6756169602       34.0274986156       11.1935120879  SOLV      9133            0.0000000000
     27513      9144  TIP3      H2             -4.8456000634       32.7644883544       11.1759666085  SOLV      9133            0.0000000000
     27514      9145  TIP3      OH2           -12.7058186509       36.3616788191       16.1057205999  SOLV      9134            0.0000000000
     27515      9145  TIP3      H1            -13.0212198628       35.9007626324       15.3033633250  SOLV      9134            0.0000000000
     27516      9145  TIP3      H2            -13.2569698584       37.1510615165       16.1148242745  SOLV      9134            0.0000000000
     27517      9146  TIP3      OH2           -17.7052571171       34.2415325750       20.0824819002  SOLV      9135            0.0000000000
     27518      9146  TIP3      H1            -18.1154721545       34.8741874775       20.6976625190  SOLV      9135            0.0000000000
     27519      9146  TIP3      H2            -18.3761521161       33.5341538459       20.0309709666  SOLV      9135            0.0000000000
     27520      9147  TIP3      OH2           -10.6506130652       35.3448957465       12.5440326695  SOLV      9136            0.0000000000
     27521      9147  TIP3      H1            -10.0996613743       34.6298340311       12.1506178147  SOLV      9136            0.0000000000
     27522      9147  TIP3      H2            -10.2843739351       35.3862011056       13.4519748706  SOLV      9136            0.0000000000
     27523      9148  TIP3      OH2           -10.1449687752       35.7913336906       15.2651304388  SOLV      9137            0.0000000000
     27524      9148  TIP3      H1            -10.9949850037       35.8994731179       15.7388082320  SOLV      9137            0.0000000000
     27525      9148  TIP3      H2             -9.5721135709       35.4407365687       15.9701832963  SOLV      9137            0.0000000000
     27526      9149  TIP3      OH2            -2.4430252630       28.3293768571       28.1277225518  SOLV      9138            0.0000000000
     27527      9149  TIP3      H1             -3.3219656588       28.4500752764       27.7441067367  SOLV      9138            0.0000000000
     27528      9149  TIP3      H2             -2.3063132213       27.3666823537       28.0214749222  SOLV      9138            0.0000000000
     27529      9150  TIP3      OH2           -12.4767608599       20.7017422341       26.2120511338  SOLV      9139            0.0000000000
     27530      9150  TIP3      H1            -13.3544146919       20.4082832908       25.8913366447  SOLV      9139            0.0000000000
     27531      9150  TIP3      H2            -12.7491925783       21.5107069931       26.6914293100  SOLV      9139            0.0000000000
     27532      9151  TIP3      OH2            -7.1170530765       21.8592296843       28.1423222987  SOLV      9140            0.0000000000
     27533      9151  TIP3      H1             -6.4175124825       21.5878058904       28.7705654236  SOLV      9140            0.0000000000
     27534      9151  TIP3      H2             -7.9412804798       21.6712827432       28.6335148160  SOLV      9140            0.0000000000
     27535      9152  TIP3      OH2            -4.7926427483       26.1397736767       27.2684826999  SOLV      9141            0.0000000000
     27536      9152  TIP3      H1             -5.2829684336       26.1368492934       28.1208698248  SOLV      9141            0.0000000000
     27537      9152  TIP3      H2             -4.9648740430       27.0431425092       26.9311562477  SOLV      9141            0.0000000000
     27538      9153  TIP3      OH2            -8.1372538696       27.4380937532       12.8886961537  SOLV      9142            0.0000000000
     27539      9153  TIP3      H1             -8.5095480411       27.2209045183       12.0128300129  SOLV      9142            0.0000000000
     27540      9153  TIP3      H2             -7.2815264155       27.8354317917       12.6294620293  SOLV      9142            0.0000000000
     27541      9154  TIP3      OH2           -11.0330783235       21.1946018650       15.9138631409  SOLV      9143            0.0000000000
     27542      9154  TIP3      H1            -11.3974159397       21.1483385725       16.8201718794  SOLV      9143            0.0000000000
     27543      9154  TIP3      H2            -11.4343439449       20.3852352893       15.5383421267  SOLV      9143            0.0000000000
     27544      9155  TIP3      OH2           -13.1960938855       25.8398275681       26.3130438569  SOLV      9144            0.0000000000
     27545      9155  TIP3      H1            -13.3247924253       26.2078459404       27.2101529527  SOLV      9144            0.0000000000
     27546      9155  TIP3      H2            -13.3648133368       26.6366996651       25.7602873483  SOLV      9144            0.0000000000
     27547      9156  TIP3      OH2           -14.3227031787       24.7538215807       21.5104212705  SOLV      9145            0.0000000000
     27548      9156  TIP3      H1            -15.2469822418       24.4885596833       21.7053824838  SOLV      9145            0.0000000000
     27549      9156  TIP3      H2            -14.2117053280       24.3425071741       20.6229121728  SOLV      9145            0.0000000000
     27550      9157  TIP3      OH2            -9.4076441849       25.5991255203       18.8199820078  SOLV      9146            0.0000000000
     27551      9157  TIP3      H1             -9.9015405219       26.3122021384       18.3610712481  SOLV      9146            0.0000000000
     27552      9157  TIP3      H2             -8.8520885100       25.2464418222       18.0948977660  SOLV      9146            0.0000000000
     27553      9158  TIP3      OH2            -7.5449475359       28.3347937006       29.6126516756  SOLV      9147            0.0000000000
     27554      9158  TIP3      H1             -7.6388225238       27.4815903229       30.0783274558  SOLV      9147            0.0000000000
     27555      9158  TIP3      H2             -6.6068951968       28.5501650692       29.8184370865  SOLV      9147            0.0000000000
     27556      9159  TIP3      OH2            -7.8649260564       25.8519953260       21.1582576202  SOLV      9148            0.0000000000
     27557      9159  TIP3      H1             -8.4955153951       26.1103181171       20.4542034743  SOLV      9148            0.0000000000
     27558      9159  TIP3      H2             -7.4798326914       25.0687171312       20.7107641725  SOLV      9148            0.0000000000
     27559      9160  TIP3      OH2           -15.0436082935       26.1760001602       28.5705025447  SOLV      9149            0.0000000000
     27560      9160  TIP3      H1            -14.7214954602       26.7540067317       29.2715950059  SOLV      9149            0.0000000000
     27561      9160  TIP3      H2            -15.0893513243       25.3166613459       29.0271079031  SOLV      9149            0.0000000000
     27562      9161  TIP3      OH2           -14.4521247618       20.9676694961       15.5516442575  SOLV      9150            0.0000000000
     27563      9161  TIP3      H1            -14.5713102083       20.9556659786       16.5215911719  SOLV      9150            0.0000000000
     27564      9161  TIP3      H2            -15.2279363139       21.4976988489       15.2804092914  SOLV      9150            0.0000000000
     27565      9162  TIP3      OH2           -19.0151517307       21.3333569820       24.3078099593  SOLV      9151            0.0000000000
     27566      9162  TIP3      H1            -18.2688077822       21.6957993613       24.8239336501  SOLV      9151            0.0000000000
     27567      9162  TIP3      H2            -18.6162132921       21.1005103912       23.4562274336  SOLV      9151            0.0000000000
     27568      9163  TIP3      OH2           -19.4090891974       21.1774416107       19.4483821801  SOLV      9152            0.0000000000
     27569      9163  TIP3      H1            -18.9450083392       21.5346640351       18.6607450951  SOLV      9152            0.0000000000
     27570      9163  TIP3      H2            -20.0096193210       21.9260246981       19.6294462133  SOLV      9152            0.0000000000
     27571      9164  TIP3      OH2            -7.8587516124       28.3183777202       25.3434451944  SOLV      9153            0.0000000000
     27572      9164  TIP3      H1             -7.4596463990       27.6379687552       24.7507101877  SOLV      9153            0.0000000000
     27573      9164  TIP3      H2             -8.0664359260       27.7515625833       26.1163366875  SOLV      9153            0.0000000000
     27574      9165  TIP3      OH2           -10.9719794096       22.9599233726       22.1063051853  SOLV      9154            0.0000000000
     27575      9165  TIP3      H1            -11.7835393708       22.9539322723       22.6520024177  SOLV      9154            0.0000000000
     27576      9165  TIP3      H2            -10.2729202570       22.8825347631       22.7786744048  SOLV      9154            0.0000000000
     27577      9166  TIP3      OH2           -16.7006850818       23.5424377564       22.1702561405  SOLV      9155            0.0000000000
     27578      9166  TIP3      H1            -17.6414536295       23.6244597211       21.8795391439  SOLV      9155            0.0000000000
     27579      9166  TIP3      H2            -16.4792701667       22.6228806389       21.9349324484  SOLV      9155            0.0000000000
     27580      9167  TIP3      OH2           -14.0712807173       23.4790393825       19.1110562435  SOLV      9156            0.0000000000
     27581      9167  TIP3      H1            -13.1317754398       23.6165474769       18.8844918317  SOLV      9156            0.0000000000
     27582      9167  TIP3      H2            -14.5390698075       23.6893849697       18.2689839268  SOLV      9156            0.0000000000
     27583      9168  TIP3      OH2            -6.1265393334       23.7466632660       24.1368658604  SOLV      9157            0.0000000000
     27584      9168  TIP3      H1             -6.4259230444       23.8792165983       25.0651786778  SOLV      9157            0.0000000000
     27585      9168  TIP3      H2             -6.8173339326       23.1456236394       23.8106940138  SOLV      9157            0.0000000000
     27586      9169  TIP3      OH2           -15.5300660271       23.8523991753       16.8530618200  SOLV      9158            0.0000000000
     27587      9169  TIP3      H1            -16.2317189812       23.3823774211       16.3680888648  SOLV      9158            0.0000000000
     27588      9169  TIP3      H2            -15.0142500549       24.2241497524       16.1071520475  SOLV      9158            0.0000000000
     27589      9170  TIP3      OH2           -10.2254822057       26.2725186610       23.0864354177  SOLV      9159            0.0000000000
     27590      9170  TIP3      H1             -9.4800178746       25.8916736957       22.5973085400  SOLV      9159            0.0000000000
     27591      9170  TIP3      H2            -10.1741914590       25.8076481132       23.9418794690  SOLV      9159            0.0000000000
     27592      9171  TIP3      OH2           -15.0364331232       21.1162985190       21.9304367390  SOLV      9160            0.0000000000
     27593      9171  TIP3      H1            -15.4067261770       20.3547196289       22.4281366893  SOLV      9160            0.0000000000
     27594      9171  TIP3      H2            -14.6056269298       20.6712676798       21.1883677147  SOLV      9160            0.0000000000
     27595      9172  TIP3      OH2           -10.4641414214       25.2596252706       25.9881655058  SOLV      9161            0.0000000000
     27596      9172  TIP3      H1            -11.3692666167       25.6053708552       26.1165546451  SOLV      9161            0.0000000000
     27597      9172  TIP3      H2             -9.9075873427       25.8878531096       26.4879529888  SOLV      9161            0.0000000000
     27598      9173  TIP3      OH2           -13.1085300330       29.1359394537       16.9317630730  SOLV      9162            0.0000000000
     27599      9173  TIP3      H1            -13.8131270448       28.4612204847       16.8187945876  SOLV      9162            0.0000000000
     27600      9173  TIP3      H2            -13.3172951699       29.4713208646       17.8391088478  SOLV      9162            0.0000000000
     27601      9174  TIP3      OH2            -4.1256167252       31.4984657991       23.1925369042  SOLV      9163            0.0000000000
     27602      9174  TIP3      H1             -3.8476437509       32.0020567880       22.3930588175  SOLV      9163            0.0000000000
     27603      9174  TIP3      H2             -4.9513130839       31.0653057777       22.8906739132  SOLV      9163            0.0000000000
     27604      9175  TIP3      OH2            -8.5149833978       22.1980771446       15.6590206781  SOLV      9164            0.0000000000
     27605      9175  TIP3      H1             -9.4790245527       21.9979382169       15.7187798483  SOLV      9164            0.0000000000
     27606      9175  TIP3      H2             -8.4665149072       23.1490059708       15.8801140130  SOLV      9164            0.0000000000
     27607      9176  TIP3      OH2            -7.8425514649       24.7483391857       16.6488670017  SOLV      9165            0.0000000000
     27608      9176  TIP3      H1             -6.8762739954       24.7961840153       16.7874953604  SOLV      9165            0.0000000000
     27609      9176  TIP3      H2             -8.0222993967       25.5508912172       16.1226163463  SOLV      9165            0.0000000000
     27610      9177  TIP3      OH2           -16.0740381749       29.2651636600       23.6982079008  SOLV      9166            0.0000000000
     27611      9177  TIP3      H1            -15.7473023111       28.9435618210       22.8318979039  SOLV      9166            0.0000000000
     27612      9177  TIP3      H2            -15.6055863655       28.6829970164       24.3196234341  SOLV      9166            0.0000000000
     27613      9178  TIP3      OH2           -11.6338547709       30.6190699345       15.1847811979  SOLV      9167            0.0000000000
     27614      9178  TIP3      H1            -12.1137541510       31.4785120571       15.2272274454  SOLV      9167            0.0000000000
     27615      9178  TIP3      H2            -12.1760239680       30.0719526184       15.7954614490  SOLV      9167            0.0000000000
     27616      9179  TIP3      OH2            -3.4561844326       25.6806324421       14.9724189960  SOLV      9168            0.0000000000
     27617      9179  TIP3      H1             -4.0648924001       25.2429422679       14.3307777521  SOLV      9168            0.0000000000
     27618      9179  TIP3      H2             -3.4841695328       26.5798331265       14.5749853916  SOLV      9168            0.0000000000
     27619      9180  TIP3      OH2            -1.2779038675       34.5825069902       25.4279454053  SOLV      9169            0.0000000000
     27620      9180  TIP3      H1             -2.2377510872       34.4441735431       25.5718124661  SOLV      9169            0.0000000000
     27621      9180  TIP3      H2             -1.1232693329       33.9394595037       24.6949769618  SOLV      9169            0.0000000000
     27622      9181  TIP3      OH2            -6.4415345923       33.8366645189       14.0294551138  SOLV      9170            0.0000000000
     27623      9181  TIP3      H1             -6.6751956987       33.1126181178       14.6259645123  SOLV      9170            0.0000000000
     27624      9181  TIP3      H2             -6.2538933347       33.3792448633       13.1883967624  SOLV      9170            0.0000000000
     27625      9182  TIP3      OH2            -6.4804970820       30.1472213548       22.3427361584  SOLV      9171            0.0000000000
     27626      9182  TIP3      H1             -7.4061715393       29.8673218741       22.4695161135  SOLV      9171            0.0000000000
     27627      9182  TIP3      H2             -6.1094582470       29.3433685788       21.9237289266  SOLV      9171            0.0000000000
     27628      9183  TIP3      OH2           -15.0991128442       32.4224133599       20.0285703072  SOLV      9172            0.0000000000
     27629      9183  TIP3      H1            -15.0830200818       33.1826177960       19.4188387991  SOLV      9172            0.0000000000
     27630      9183  TIP3      H2            -16.0506415163       32.2877183397       20.1296871367  SOLV      9172            0.0000000000
     27631      9184  TIP3      OH2           -19.4672054866       25.4220845463       17.0321889502  SOLV      9173            0.0000000000
     27632      9184  TIP3      H1            -19.0424545709       26.2781446307       17.2490264717  SOLV      9173            0.0000000000
     27633      9184  TIP3      H2            -20.2468581768       25.4471454750       17.6327546202  SOLV      9173            0.0000000000
     27634      9185  TIP3      OH2           -13.8653365031       30.0370152646       19.3523193533  SOLV      9174            0.0000000000
     27635      9185  TIP3      H1            -14.1823851220       30.9273622032       19.6012993719  SOLV      9174            0.0000000000
     27636      9185  TIP3      H2            -14.1866046871       29.5037766751       20.1033185148  SOLV      9174            0.0000000000
     27637      9186  TIP3      OH2           -15.6797928732       34.7454093686       18.3576197155  SOLV      9175            0.0000000000
     27638      9186  TIP3      H1            -16.4787251291       34.6119191336       18.9212106517  SOLV      9175            0.0000000000
     27639      9186  TIP3      H2            -15.6456678896       35.7054914630       18.3075783662  SOLV      9175            0.0000000000
     27640      9187  TIP3      OH2            -8.5048061950       32.1612158801       24.1875570228  SOLV      9176            0.0000000000
     27641      9187  TIP3      H1             -8.3349854225       32.2004650659       25.1417592847  SOLV      9176            0.0000000000
     27642      9187  TIP3      H2             -7.7385878133       31.6481041108       23.8885916651  SOLV      9176            0.0000000000
     27643      9188  TIP3      OH2            -8.7835630293       31.1554941927       13.0816020816  SOLV      9177            0.0000000000
     27644      9188  TIP3      H1             -8.2526760440       30.8991377111       13.8709503688  SOLV      9177            0.0000000000
     27645      9188  TIP3      H2             -9.6523451121       30.8060700521       13.3309612221  SOLV      9177            0.0000000000
     27646      9189  TIP3      OH2            -5.5310949563       35.8529371753       11.1003159953  SOLV      9178            0.0000000000
     27647      9189  TIP3      H1             -4.9478845896       36.6378626898       11.0146904080  SOLV      9178            0.0000000000
     27648      9189  TIP3      H2             -6.3213790449       36.2814908858       11.4837792873  SOLV      9178            0.0000000000
     27649      9190  TIP3      OH2           -15.0761843794       23.5532882337       29.9278900734  SOLV      9179            0.0000000000
     27650      9190  TIP3      H1            -15.9914049907       23.2389321836       29.9018010148  SOLV      9179            0.0000000000
     27651      9190  TIP3      H2            -14.7011787494       23.0259002916       30.6562255314  SOLV      9179            0.0000000000
     27652      9191  TIP3      OH2            -7.1939491930       30.4867377696       15.2490516152  SOLV      9180            0.0000000000
     27653      9191  TIP3      H1             -7.3170648261       29.8005900497       15.9366258932  SOLV      9180            0.0000000000
     27654      9191  TIP3      H2             -6.2293461527       30.3912837766       15.0944904648  SOLV      9180            0.0000000000
     27655      9192  TIP3      OH2           -15.2051057047       30.9095522373       13.0676599766  SOLV      9181            0.0000000000
     27656      9192  TIP3      H1            -15.0734698003       29.9826105113       12.7913504681  SOLV      9181            0.0000000000
     27657      9192  TIP3      H2            -15.4218269760       30.7922714089       14.0142233946  SOLV      9181            0.0000000000
     27658      9193  TIP3      OH2           -15.7519996445       30.9197037913       15.7836822236  SOLV      9182            0.0000000000
     27659      9193  TIP3      H1            -14.9859529602       30.6456237634       16.3093616900  SOLV      9182            0.0000000000
     27660      9193  TIP3      H2            -15.7104815364       31.8996064501       15.8588771182  SOLV      9182            0.0000000000
     27661      9194  TIP3      OH2           -18.3890424003       27.8705343132       17.8184738635  SOLV      9183            0.0000000000
     27662      9194  TIP3      H1            -19.0788582355       28.3037453613       18.3676062275  SOLV      9183            0.0000000000
     27663      9194  TIP3      H2            -18.2717317865       28.5540802283       17.1307211191  SOLV      9183            0.0000000000
     27664      9195  TIP3      OH2            -6.8458456284       24.2394808688       26.7395520334  SOLV      9184            0.0000000000
     27665      9195  TIP3      H1             -6.0532649975       24.6628777262       27.1150503513  SOLV      9184            0.0000000000
     27666      9195  TIP3      H2             -6.9465929424       23.4408720720       27.2993108772  SOLV      9184            0.0000000000
     27667      9196  TIP3      OH2            -8.0331966096       21.7087776466       18.4551810346  SOLV      9185            0.0000000000
     27668      9196  TIP3      H1             -8.1737180422       21.9117066878       17.5098725025  SOLV      9185            0.0000000000
     27669      9196  TIP3      H2             -7.6436574771       22.5462260206       18.7876617981  SOLV      9185            0.0000000000
     27670      9197  TIP3      OH2           -13.0081358838       32.9309027370       15.2943488121  SOLV      9186            0.0000000000
     27671      9197  TIP3      H1            -13.9111240072       33.1269155500       15.6130866585  SOLV      9186            0.0000000000
     27672      9197  TIP3      H2            -12.9246069550       33.5862986141       14.5865983183  SOLV      9186            0.0000000000
     27673      9198  TIP3      OH2           -11.2239679426       23.5920928422       19.4245455262  SOLV      9187            0.0000000000
     27674      9198  TIP3      H1            -10.5826983974       24.3157701136       19.2568877001  SOLV      9187            0.0000000000
     27675      9198  TIP3      H2            -11.1438737488       23.4888465549       20.3975542893  SOLV      9187            0.0000000000
     27676      9199  TIP3      OH2            -8.4699024693       26.7285760928       27.4457523485  SOLV      9188            0.0000000000
     27677      9199  TIP3      H1             -8.1762719984       27.2666768177       28.2091712268  SOLV      9188            0.0000000000
     27678      9199  TIP3      H2             -7.9354573941       25.9193829760       27.5369545167  SOLV      9188            0.0000000000
     27679      9200  TIP3      OH2            -9.7847795198       20.7488458054       20.4016136816  SOLV      9189            0.0000000000
     27680      9200  TIP3      H1             -9.8524837205       21.5361424165       20.9721297301  SOLV      9189            0.0000000000
     27681      9200  TIP3      H2             -9.1462870969       21.0735926871       19.7239027490  SOLV      9189            0.0000000000
     27682      9201  TIP3      OH2           -15.5684324365       33.6180415614       15.8907914864  SOLV      9190            0.0000000000
     27683      9201  TIP3      H1            -15.9049967388       34.3368332953       15.3110375951  SOLV      9190            0.0000000000
     27684      9201  TIP3      H2            -15.6420561118       34.0374791240       16.7769935740  SOLV      9190            0.0000000000
     27685      9202  TIP3      OH2           -14.6298554912       20.8378388615       18.3152645573  SOLV      9191            0.0000000000
     27686      9202  TIP3      H1            -14.6473375779       21.7342651279       18.7047504868  SOLV      9191            0.0000000000
     27687      9202  TIP3      H2            -13.6685790409       20.6548772804       18.3826844869  SOLV      9191            0.0000000000
     27688      9203  TIP3      OH2            -2.1266929412       25.6653782208       27.3798082658  SOLV      9192            0.0000000000
     27689      9203  TIP3      H1             -3.1087586606       25.6352949030       27.3543636930  SOLV      9192            0.0000000000
     27690      9203  TIP3      H2             -1.9122462784       25.4485105255       26.4632155407  SOLV      9192            0.0000000000
     27691      9204  TIP3      OH2            -5.5869165046       27.6966664554       21.1835362932  SOLV      9193            0.0000000000
     27692      9204  TIP3      H1             -6.3362950147       27.0869206560       21.2984923670  SOLV      9193            0.0000000000
     27693      9204  TIP3      H2             -4.8650095495       27.2287182091       21.6572645224  SOLV      9193            0.0000000000
     27694      9205  TIP3      OH2           -18.4112399303       29.9064371489       15.8447736655  SOLV      9194            0.0000000000
     27695      9205  TIP3      H1            -17.6591031521       30.5200765847       15.9505659236  SOLV      9194            0.0000000000
     27696      9205  TIP3      H2            -18.0165596980       29.3049669806       15.1744372066  SOLV      9194            0.0000000000
     27697      9206  TIP3      OH2           -19.0402247862       22.7172648244       17.2179419613  SOLV      9195            0.0000000000
     27698      9206  TIP3      H1            -19.0051727141       23.6945744227       17.2095201925  SOLV      9195            0.0000000000
     27699      9206  TIP3      H2            -19.8412502641       22.5483121445       16.7095306509  SOLV      9195            0.0000000000
     27700      9207  TIP3      OH2            -5.8932170788       37.0561461223       20.6359075486  SOLV      9196            0.0000000000
     27701      9207  TIP3      H1             -6.3088065021       37.6333475145       19.9627535375  SOLV      9196            0.0000000000
     27702      9207  TIP3      H2             -4.9733422652       37.3873604729       20.5544383676  SOLV      9196            0.0000000000
     27703      9208  TIP3      OH2           -15.1452089892       19.9291593206       25.9000754250  SOLV      9197            0.0000000000
     27704      9208  TIP3      H1            -15.4308955136       19.5784302219       25.0291219225  SOLV      9197            0.0000000000
     27705      9208  TIP3      H2            -15.2460876626       19.1457985786       26.4770678854  SOLV      9197            0.0000000000
     27706      9209  TIP3      OH2           -19.7376662589       32.0948094398       19.7888487729  SOLV      9198            0.0000000000
     27707      9209  TIP3      H1            -20.4490224420       32.0611628892       20.4429052819  SOLV      9198            0.0000000000
     27708      9209  TIP3      H2            -20.1876867712       32.5278130623       19.0206983628  SOLV      9198            0.0000000000
     27709      9210  TIP3      OH2           -13.5497429984       32.9176693731       12.1751451927  SOLV      9199            0.0000000000
     27710      9210  TIP3      H1            -14.1071409354       32.1816848707       12.5230629972  SOLV      9199            0.0000000000
     27711      9210  TIP3      H2            -12.7938978004       32.4153310277       11.8177783183  SOLV      9199            0.0000000000
     27712      9211  TIP3      OH2            -9.2031504229       33.3066829293       11.3286446504  SOLV      9200            0.0000000000
     27713      9211  TIP3      H1             -8.8230531131       32.6589440059       11.9574878281  SOLV      9200            0.0000000000
     27714      9211  TIP3      H2             -8.5944711119       33.2448757447       10.5692062768  SOLV      9200            0.0000000000
     27715      9212  TIP3      OH2           -17.0762222403       28.0537382803       14.4119716111  SOLV      9201            0.0000000000
     27716      9212  TIP3      H1            -16.5070938420       27.7600175542       15.1464883514  SOLV      9201            0.0000000000
     27717      9212  TIP3      H2            -16.4088026118       28.1156428850       13.6931072196  SOLV      9201            0.0000000000
     27718      9213  TIP3      OH2           -11.9071439874       30.1090326278       12.4930481985  SOLV      9202            0.0000000000
     27719      9213  TIP3      H1            -11.8954017099       30.2019062446       13.4676052298  SOLV      9202            0.0000000000
     27720      9213  TIP3      H2            -11.8942649328       29.1291528909       12.4087829204  SOLV      9202            0.0000000000
     27721      9214  TIP3      OH2            -6.0362171639       32.6404137857       26.2227185004  SOLV      9203            0.0000000000
     27722      9214  TIP3      H1             -5.2402224646       32.9330713582       25.7370060909  SOLV      9203            0.0000000000
     27723      9214  TIP3      H2             -6.1330350305       33.3662463329       26.8728039768  SOLV      9203            0.0000000000
     27724      9215  TIP3      OH2           -15.0272738572       27.1677065188       16.5846088259  SOLV      9204            0.0000000000
     27725      9215  TIP3      H1            -15.3098894275       26.7472353103       17.4120458828  SOLV      9204            0.0000000000
     27726      9215  TIP3      H2            -14.6352698297       26.4144309023       16.0935899880  SOLV      9204            0.0000000000
     27727      9216  TIP3      OH2           -12.1527311551       27.2826915654       28.6155258749  SOLV      9205            0.0000000000
     27728      9216  TIP3      H1            -12.3519677056       27.9315548953       29.3217216927  SOLV      9205            0.0000000000
     27729      9216  TIP3      H2            -11.5165565283       27.7917052956       28.0566694834  SOLV      9205            0.0000000000
     27730      9217  TIP3      OH2           -13.9791061247       25.1317448953       14.9902483892  SOLV      9206            0.0000000000
     27731      9217  TIP3      H1            -14.2187068564       25.2151715306       14.0436196811  SOLV      9206            0.0000000000
     27732      9217  TIP3      H2            -13.0004136404       25.1169366435       14.9268222378  SOLV      9206            0.0000000000
     27733      9218  TIP3      OH2            -5.8413516760       28.3793326508       11.6971701203  SOLV      9207            0.0000000000
     27734      9218  TIP3      H1             -6.0123810944       27.9489556561       10.8350241921  SOLV      9207            0.0000000000
     27735      9218  TIP3      H2             -6.1731668371       29.2829618184       11.4858854625  SOLV      9207            0.0000000000
     27736      9219  TIP3      OH2           -10.9943742055       25.4417566705       30.2210616801  SOLV      9208            0.0000000000
     27737      9219  TIP3      H1            -10.9848438835       24.6700928720       29.6163090123  SOLV      9208            0.0000000000
     27738      9219  TIP3      H2            -11.4704543235       26.0828754374       29.6454125608  SOLV      9208            0.0000000000
     27739      9220  TIP3      OH2           -11.0242824570       23.5061943981       28.1939171302  SOLV      9209            0.0000000000
     27740      9220  TIP3      H1            -10.7431837714       23.9555875950       27.3715789689  SOLV      9209            0.0000000000
     27741      9220  TIP3      H2            -11.9616904831       23.2985059329       27.9868274908  SOLV      9209            0.0000000000
     27742      9221  TIP3      OH2           -10.7176878745       28.8111756448       26.9454840294  SOLV      9210            0.0000000000
     27743      9221  TIP3      H1             -9.8044035155       28.8051052486       26.6262819913  SOLV      9210            0.0000000000
     27744      9221  TIP3      H2            -11.1635723645       29.4067447020       26.3111695985  SOLV      9210            0.0000000000
     27745      9222  TIP3      OH2            -4.9182328543       28.4894639202       30.5002731749  SOLV      9211            0.0000000000
     27746      9222  TIP3      H1             -4.1883764375       27.8738637349       30.6438830849  SOLV      9211            0.0000000000
     27747      9222  TIP3      H2             -4.4645311218       29.3513792025       30.6091763943  SOLV      9211            0.0000000000
     27748      9223  TIP3      OH2            -4.4688253568       30.9764828501       27.8226243590  SOLV      9212            0.0000000000
     27749      9223  TIP3      H1             -5.1554059044       31.5592811765       27.4382353845  SOLV      9212            0.0000000000
     27750      9223  TIP3      H2             -3.6527017243       31.3644957205       27.4309065201  SOLV      9212            0.0000000000
     27751      9224  TIP3      OH2            -9.7385813814       21.1629058125       28.9970417410  SOLV      9213            0.0000000000
     27752      9224  TIP3      H1            -10.2318655996       21.9591222373       28.7012834972  SOLV      9213            0.0000000000
     27753      9224  TIP3      H2            -10.4078168604       20.4615766132       28.8576316439  SOLV      9213            0.0000000000
     27754      9225  TIP3      OH2            -8.4350574076       26.1252293427       30.9831212492  SOLV      9214            0.0000000000
     27755      9225  TIP3      H1             -8.5714863099       25.9928431743       31.9303899747  SOLV      9214            0.0000000000
     27756      9225  TIP3      H2             -9.3329241779       25.9382485766       30.6271893376  SOLV      9214            0.0000000000
     27757      9226  TIP3      OH2            -6.1242903789       25.5856457767       29.5389700615  SOLV      9215            0.0000000000
     27758      9226  TIP3      H1             -6.8279087808       25.5909151606       30.2142977066  SOLV      9215            0.0000000000
     27759      9226  TIP3      H2             -5.3234027245       25.3854597285       30.0712088626  SOLV      9215            0.0000000000
     27760      9227  TIP3      OH2            -3.8281599006       25.0471846058       30.9840509142  SOLV      9216            0.0000000000
     27761      9227  TIP3      H1             -3.6809789993       24.1086077773       31.2203760451  SOLV      9216            0.0000000000
     27762      9227  TIP3      H2             -3.8596220925       25.4970633729       31.8557783638  SOLV      9216            0.0000000000
     27763      9228  TIP3      OH2            -8.7803243489       21.2407450238       31.5480825529  SOLV      9217            0.0000000000
     27764      9228  TIP3      H1             -8.1228425495       20.5214580335       31.4501485659  SOLV      9217            0.0000000000
     27765      9228  TIP3      H2             -9.1818210045       21.2278593406       30.6523040102  SOLV      9217            0.0000000000
     27766      9229  TIP3      OH2            -8.4085716918       23.4450013954       33.0685388998  SOLV      9218            0.0000000000
     27767      9229  TIP3      H1             -8.3872410594       22.6648467972       32.4648332511  SOLV      9218            0.0000000000
     27768      9229  TIP3      H2             -9.3133631978       23.7493702685       32.9190927403  SOLV      9218            0.0000000000
     27769      9230  TIP3      OH2           -15.8168728938       35.7101259452       14.1499130947  SOLV      9219            0.0000000000
     27770      9230  TIP3      H1            -14.8544216700       35.6057450730       14.0334568216  SOLV      9219            0.0000000000
     27771      9230  TIP3      H2            -16.0452698590       36.0129613091       13.2580022961  SOLV      9219            0.0000000000
     27772      9231  TIP3      OH2           -21.1236781730       29.5427939308       16.1524427843  SOLV      9220            0.0000000000
     27773      9231  TIP3      H1            -20.1660673968       29.7375056247       16.0581059110  SOLV      9220            0.0000000000
     27774      9231  TIP3      H2            -21.1738710675       28.6317118621       15.7916903102  SOLV      9220            0.0000000000
     27775      9232  TIP3      OH2            -3.4211875494       38.1441795443       20.3141551918  SOLV      9221            0.0000000000
     27776      9232  TIP3      H1             -2.8032655642       38.1419175576       21.0687203278  SOLV      9221            0.0000000000
     27777      9232  TIP3      H2             -2.8892107897       38.4845513085       19.5815126484  SOLV      9221            0.0000000000
     27778      9233  TIP3      OH2            -2.7381136215       38.1690994037       23.0100603380  SOLV      9222            0.0000000000
     27779      9233  TIP3      H1             -3.0922980144       37.2656179451       23.1443583799  SOLV      9222            0.0000000000
     27780      9233  TIP3      H2             -2.2495339830       38.3373857125       23.8339256130  SOLV      9222            0.0000000000
     27781      9234  TIP3      OH2            -4.4500640699       30.2321230075       15.0000544853  SOLV      9223            0.0000000000
     27782      9234  TIP3      H1             -3.8881263594       30.9933244808       14.8093944019  SOLV      9223            0.0000000000
     27783      9234  TIP3      H2             -3.9822755250       29.8315074365       15.7705860052  SOLV      9223            0.0000000000
     27784      9235  TIP3      OH2            -3.1505772245       28.9301586491       17.0226841826  SOLV      9224            0.0000000000
     27785      9235  TIP3      H1             -3.7989745207       28.5201795321       17.6345123423  SOLV      9224            0.0000000000
     27786      9235  TIP3      H2             -2.4638571797       29.2706751421       17.6357168492  SOLV      9224            0.0000000000
     27787      9236  TIP3      OH2            -2.6309728929       32.8011062955       21.3253534624  SOLV      9225            0.0000000000
     27788      9236  TIP3      H1             -2.0706960659       32.1323229438       20.8826462215  SOLV      9225            0.0000000000
     27789      9236  TIP3      H2             -2.5077380319       33.5817191615       20.7372474515  SOLV      9225            0.0000000000
     27790      9237  TIP3      OH2            -4.3573454602       35.8032953454       23.3342012844  SOLV      9226            0.0000000000
     27791      9237  TIP3      H1             -5.2014872295       35.9260016259       23.7884962288  SOLV      9226            0.0000000000
     27792      9237  TIP3      H2             -4.6691953522       35.4379050149       22.4817457104  SOLV      9226            0.0000000000
     27793      9238  TIP3      OH2            -3.8153660748       27.9836544216       13.4927676467  SOLV      9227            0.0000000000
     27794      9238  TIP3      H1             -4.5224934983       28.0090752035       12.8096830648  SOLV      9227            0.0000000000
     27795      9238  TIP3      H2             -4.0766209902       28.7618786209       14.0259754324  SOLV      9227            0.0000000000
     27796      9239  TIP3      OH2            -5.0817283072       24.7294992384       13.0134924946  SOLV      9228            0.0000000000
     27797      9239  TIP3      H1             -5.5197810384       25.0527385765       12.2188832196  SOLV      9228            0.0000000000
     27798      9239  TIP3      H2             -5.2916524085       23.7711311009       12.9570994264  SOLV      9228            0.0000000000
     27799      9240  TIP3      OH2            -5.0397407134       27.5272977350       18.4825745301  SOLV      9229            0.0000000000
     27800      9240  TIP3      H1             -4.9457125512       26.5652749521       18.3875779982  SOLV      9229            0.0000000000
     27801      9240  TIP3      H2             -5.1778239437       27.6318811645       19.4505779379  SOLV      9229            0.0000000000
     27802      9241  TIP3      OH2           -18.4905832186       27.8707058970       25.8510604011  SOLV      9230            0.0000000000
     27803      9241  TIP3      H1            -18.3795744827       27.7866671419       24.8838432508  SOLV      9230            0.0000000000
     27804      9241  TIP3      H2            -17.5687673978       28.0555444484       26.1383396498  SOLV      9230            0.0000000000
     27805      9242  TIP3      OH2            -2.0501032375       31.8265104854       26.8732940502  SOLV      9231            0.0000000000
     27806      9242  TIP3      H1             -1.4071050149       31.0769262298       26.8728931559  SOLV      9231            0.0000000000
     27807      9242  TIP3      H2             -1.6722750796       32.3997218265       26.1931622801  SOLV      9231            0.0000000000
     27808      9243  TIP3      OH2            -0.3588682353       29.7870471432       27.1837496788  SOLV      9232            0.0000000000
     27809      9243  TIP3      H1             -1.0116393386       29.2214629237       27.6491439613  SOLV      9232            0.0000000000
     27810      9243  TIP3      H2              0.4533791574       29.2546124030       27.2962566108  SOLV      9232            0.0000000000
     27811      9244  TIP3      OH2            -5.6395668051       22.0706416006       12.8406101412  SOLV      9233            0.0000000000
     27812      9244  TIP3      H1             -4.9215650181       21.7331731917       13.4115516672  SOLV      9233            0.0000000000
     27813      9244  TIP3      H2             -6.3847687577       21.4754271396       13.0285461438  SOLV      9233            0.0000000000
     27814      9245  TIP3      OH2            -5.0342321347       24.6769191037       17.3847547499  SOLV      9234            0.0000000000
     27815      9245  TIP3      H1             -4.6289718243       23.7884049498       17.5311889906  SOLV      9234            0.0000000000
     27816      9245  TIP3      H2             -4.4581869955       25.0025480449       16.6691622518  SOLV      9234            0.0000000000
     27817      9246  TIP3      OH2            -3.4629031017       26.3567964147       22.3762834184  SOLV      9235            0.0000000000
     27818      9246  TIP3      H1             -2.6063931931       26.5940715699       21.9510344286  SOLV      9235            0.0000000000
     27819      9246  TIP3      H2             -3.3012011660       26.7382496785       23.2621458197  SOLV      9235            0.0000000000
     27820      9247  TIP3      OH2            -2.7246329847       27.7957059210       24.6825397361  SOLV      9236            0.0000000000
     27821      9247  TIP3      H1             -3.4768285012       28.1543053164       25.1907196024  SOLV      9236            0.0000000000
     27822      9247  TIP3      H2             -2.4044468980       28.6008512212       24.2136506404  SOLV      9236            0.0000000000
     27823      9248  TIP3      OH2             1.7851037379       23.7263548118       30.2084553028  SOLV      9237            0.0000000000
     27824      9248  TIP3      H1              2.4148669526       23.1043004713       29.7835109584  SOLV      9237            0.0000000000
     27825      9248  TIP3      H2              1.4585077627       24.2397333216       29.4360147046  SOLV      9237            0.0000000000
     27826      9249  TIP3      OH2            -3.9639598204       22.1799806097       17.8026823183  SOLV      9238            0.0000000000
     27827      9249  TIP3      H1             -3.4817116697       22.0108511286       18.6386108531  SOLV      9238            0.0000000000
     27828      9249  TIP3      H2             -4.5746956027       21.4144937875       17.7870533137  SOLV      9238            0.0000000000
     27829      9250  TIP3      OH2           -16.9910668031       22.0118383250       26.0996763112  SOLV      9239            0.0000000000
     27830      9250  TIP3      H1            -16.3729071298       21.2529351562       26.1187920694  SOLV      9239            0.0000000000
     27831      9250  TIP3      H2            -16.3667083269       22.7427564697       25.9306576795  SOLV      9239            0.0000000000
     27832      9251  TIP3      OH2           -18.9977375061       24.9550462263       26.7575208252  SOLV      9240            0.0000000000
     27833      9251  TIP3      H1            -18.5045920338       24.8021473361       25.9255892127  SOLV      9240            0.0000000000
     27834      9251  TIP3      H2            -18.7522305495       25.8806786483       26.9216944132  SOLV      9240            0.0000000000
     27835      9252  TIP3      OH2             0.4139560739       25.0839415277       28.3200984930  SOLV      9241            0.0000000000
     27836      9252  TIP3      H1             -0.4224169153       25.5754204739       28.4544159756  SOLV      9241            0.0000000000
     27837      9252  TIP3      H2              0.0830600329       24.3823033632       27.7238487704  SOLV      9241            0.0000000000
     27838      9253  TIP3      OH2            -3.1991157784       21.4612082270       14.1615972433  SOLV      9242            0.0000000000
     27839      9253  TIP3      H1             -2.8044203406       20.7809048529       13.5773252955  SOLV      9242            0.0000000000
     27840      9253  TIP3      H2             -2.5294787740       22.1731347678       14.1373834352  SOLV      9242            0.0000000000
     27841      9254  TIP3      OH2           -19.0736086211       19.7977014997       21.7400239236  SOLV      9243            0.0000000000
     27842      9254  TIP3      H1            -20.0015058282       19.7163048206       22.0138142585  SOLV      9243            0.0000000000
     27843      9254  TIP3      H2            -19.1468708492       20.3819802500       20.9545454255  SOLV      9243            0.0000000000
     27844      9255  TIP3      OH2            -7.5402539121       36.8002129465       16.7637788014  SOLV      9244            0.0000000000
     27845      9255  TIP3      H1             -6.9437492640       36.7290815703       15.9914142776  SOLV      9244            0.0000000000
     27846      9255  TIP3      H2             -7.0059602055       37.3428063792       17.3767167052  SOLV      9244            0.0000000000
     27847      9256  TIP3      OH2           -16.8072528159       20.8118339678       29.9101507796  SOLV      9245            0.0000000000
     27848      9256  TIP3      H1            -17.3496833905       20.5910499025       30.6960464886  SOLV      9245            0.0000000000
     27849      9256  TIP3      H2            -17.5088473605       21.1401200237       29.3134508510  SOLV      9245            0.0000000000
     27850      9257  TIP3      OH2            -0.5392398946       22.7529219087       27.0942946384  SOLV      9246            0.0000000000
     27851      9257  TIP3      H1             -1.4283332864       22.6974559921       26.7034749452  SOLV      9246            0.0000000000
     27852      9257  TIP3      H2             -0.2201948484       21.8269570442       26.9901171772  SOLV      9246            0.0000000000
     27853      9258  TIP3      OH2            -8.4949737546       21.9049484721       23.3102312269  SOLV      9247            0.0000000000
     27854      9258  TIP3      H1             -8.9050850705       21.1744054241       23.8049504057  SOLV      9247            0.0000000000
     27855      9258  TIP3      H2             -7.7408035516       21.4662826087       22.8688826443  SOLV      9247            0.0000000000
     27856      9259  TIP3      OH2            -3.3001620758       20.7119591857       22.3348653044  SOLV      9248            0.0000000000
     27857      9259  TIP3      H1             -2.9341647408       21.2307465705       21.5838579618  SOLV      9248            0.0000000000
     27858      9259  TIP3      H2             -4.2492587522       20.9241760371       22.2768075513  SOLV      9248            0.0000000000
     27859      9260  TIP3      OH2            -2.3306963361       21.6745718172       19.9732202382  SOLV      9249            0.0000000000
     27860      9260  TIP3      H1             -1.5878480640       21.1648957976       19.5847564222  SOLV      9249            0.0000000000
     27861      9260  TIP3      H2             -1.9902190642       22.5901832373       19.8349485447  SOLV      9249            0.0000000000
     27862      9261  TIP3      OH2           -16.0226725686       18.9797328122       23.4361083126  SOLV      9250            0.0000000000
     27863      9261  TIP3      H1            -16.9519636141       18.6661502617       23.4735013247  SOLV      9250            0.0000000000
     27864      9261  TIP3      H2            -15.5531264465       18.1181884172       23.3908127502  SOLV      9250            0.0000000000
     27865      9262  TIP3      OH2           -18.1176797847       17.7222732987       19.9575059294  SOLV      9251            0.0000000000
     27866      9262  TIP3      H1            -17.8141058484       18.2624960368       19.2065708747  SOLV      9251            0.0000000000
     27867      9262  TIP3      H2            -18.3599967485       18.4046819807       20.6140984595  SOLV      9251            0.0000000000
     27868      9263  TIP3      OH2           -11.5225197452       19.2985469482       22.2699950202  SOLV      9252            0.0000000000
     27869      9263  TIP3      H1            -10.9914053424       19.7633187858       21.6026678935  SOLV      9252            0.0000000000
     27870      9263  TIP3      H2            -11.2283789000       19.7206644918       23.0901045113  SOLV      9252            0.0000000000
     27871      9264  TIP3      OH2            -6.1594055039       20.8004847340       22.0834795887  SOLV      9253            0.0000000000
     27872      9264  TIP3      H1             -6.1050081373       20.3880317518       21.2112162245  SOLV      9253            0.0000000000
     27873      9264  TIP3      H2             -6.2520061921       20.0104964505       22.6673634183  SOLV      9253            0.0000000000
     27874      9265  TIP3      OH2            -5.7943523178       20.0548991996       17.7307503860  SOLV      9254            0.0000000000
     27875      9265  TIP3      H1             -6.6538121923       20.4832251624       17.9020250956  SOLV      9254            0.0000000000
     27876      9265  TIP3      H2             -5.9359694770       19.1844568478       18.1616301170  SOLV      9254            0.0000000000
     27877      9266  TIP3      OH2           -20.9957810882       33.4306316494       17.8521542525  SOLV      9255            0.0000000000
     27878      9266  TIP3      H1            -21.8597678186       33.0479264517       17.6045456828  SOLV      9255            0.0000000000
     27879      9266  TIP3      H2            -20.9862116316       34.2090055613       17.2573243932  SOLV      9255            0.0000000000
     27880      9267  TIP3      OH2           -16.9267192912       19.2610695577       17.5556731462  SOLV      9256            0.0000000000
     27881      9267  TIP3      H1            -16.4622359738       18.6300808932       16.9704975985  SOLV      9256            0.0000000000
     27882      9267  TIP3      H2            -16.1811971763       19.7958865790       17.8948284550  SOLV      9256            0.0000000000
     27883      9268  TIP3      OH2           -11.8657118833       21.0840014268       18.5433898079  SOLV      9257            0.0000000000
     27884      9268  TIP3      H1            -11.2623984110       20.5970896669       19.1297862552  SOLV      9257            0.0000000000
     27885      9268  TIP3      H2            -11.6310553743       22.0043999024       18.7968618044  SOLV      9257            0.0000000000
     27886      9269  TIP3      OH2           -13.1849276172       35.2254726088       13.5866611488  SOLV      9258            0.0000000000
     27887      9269  TIP3      H1            -12.3095897726       35.4396615746       13.1963732016  SOLV      9258            0.0000000000
     27888      9269  TIP3      H2            -13.4546097401       34.5169295255       12.9557973216  SOLV      9258            0.0000000000
     27889      9270  TIP3      OH2            -6.0134393501       36.4794256834       14.4816117667  SOLV      9259            0.0000000000
     27890      9270  TIP3      H1             -6.1085706629       35.4985146005       14.4106223177  SOLV      9259            0.0000000000
     27891      9270  TIP3      H2             -6.4749157741       36.7635656450       13.6714507455  SOLV      9259            0.0000000000
     27892      9271  TIP3      OH2           -14.1444935541       21.7038639328       32.2660455976  SOLV      9260            0.0000000000
     27893      9271  TIP3      H1            -14.3932016331       20.9842569140       32.8815661080  SOLV      9260            0.0000000000
     27894      9271  TIP3      H2            -13.2216378324       21.8644055156       32.5504449824  SOLV      9260            0.0000000000
     27895      9272  TIP3      OH2           -11.4514119060       21.6946953196       33.3459983866  SOLV      9261            0.0000000000
     27896      9272  TIP3      H1            -10.6404054505       21.3560222175       32.9341476304  SOLV      9261            0.0000000000
     27897      9272  TIP3      H2            -11.5810595452       21.0723058995       34.0830908484  SOLV      9261            0.0000000000
     27898      9273  TIP3      OH2           -20.1281875906       33.7169776860       14.1422360077  SOLV      9262            0.0000000000
     27899      9273  TIP3      H1            -20.0840754399       33.8380176434       15.0991855744  SOLV      9262            0.0000000000
     27900      9273  TIP3      H2            -19.2787785579       33.2568649818       13.9479656631  SOLV      9262            0.0000000000
     27901      9274  TIP3      OH2            -3.1316603870       22.3820285873       31.4184060560  SOLV      9263            0.0000000000
     27902      9274  TIP3      H1             -2.9244545412       22.0758924045       32.3250829198  SOLV      9263            0.0000000000
     27903      9274  TIP3      H2             -2.2446248669       22.3671487566       30.9965151496  SOLV      9263            0.0000000000
     27904      9275  TIP3      OH2             8.9439005874       31.6384485612       13.9599574366  SOLV      9264            0.0000000000
     27905      9275  TIP3      H1              8.6903104711       32.5629118313       13.8805201880  SOLV      9264            0.0000000000
     27906      9275  TIP3      H2              8.1575744073       31.1613809405       13.6338381329  SOLV      9264            0.0000000000
     27907      9276  TIP3      OH2             8.6360898802       31.4635634660       17.7858502224  SOLV      9265            0.0000000000
     27908      9276  TIP3      H1              9.0232730431       31.4064458135       18.6869677430  SOLV      9265            0.0000000000
     27909      9276  TIP3      H2              8.2733376908       30.5610972204       17.7028192434  SOLV      9265            0.0000000000
     27910      9277  TIP3      OH2             1.8098053633       30.5336575924       21.4934949503  SOLV      9266            0.0000000000
     27911      9277  TIP3      H1              2.1015982294       29.8429179192       22.1199064865  SOLV      9266            0.0000000000
     27912      9277  TIP3      H2              2.5818386570       31.1161500477       21.4978496098  SOLV      9266            0.0000000000
     27913      9278  TIP3      OH2            11.2521720145       34.5381214443       14.6000971807  SOLV      9267            0.0000000000
     27914      9278  TIP3      H1             11.2081879494       34.0381097485       15.4329326636  SOLV      9267            0.0000000000
     27915      9278  TIP3      H2             11.5594439439       35.4168776887       14.9114430126  SOLV      9267            0.0000000000
     27916      9279  TIP3      OH2             1.4796549954       34.7085162857       18.7312007743  SOLV      9268            0.0000000000
     27917      9279  TIP3      H1              1.4400130684       33.7291807250       18.6660632130  SOLV      9268            0.0000000000
     27918      9279  TIP3      H2              2.4376426904       34.8381549954       18.8144086611  SOLV      9268            0.0000000000
     27919      9280  TIP3      OH2            -1.3551396851       26.6579702778       16.4941040561  SOLV      9269            0.0000000000
     27920      9280  TIP3      H1             -1.7890671574       27.5006382476       16.7084756015  SOLV      9269            0.0000000000
     27921      9280  TIP3      H2             -2.0861605800       26.1930285825       16.0463901313  SOLV      9269            0.0000000000
     27922      9281  TIP3      OH2            -0.8165969693       29.6134818945       18.3185256893  SOLV      9270            0.0000000000
     27923      9281  TIP3      H1             -0.2739856080       28.8474858245       18.6120073042  SOLV      9270            0.0000000000
     27924      9281  TIP3      H2             -0.1835770118       30.1231887861       17.7914104131  SOLV      9270            0.0000000000
     27925      9282  TIP3      OH2             7.8455223254       39.0919807834       14.8338432728  SOLV      9271            0.0000000000
     27926      9282  TIP3      H1              8.2573519711       38.4916857905       14.1789606132  SOLV      9271            0.0000000000
     27927      9282  TIP3      H2              7.7438543270       38.5056468386       15.5937721982  SOLV      9271            0.0000000000
     27928      9283  TIP3      OH2             6.7906735790       33.8181390191       18.2055227364  SOLV      9272            0.0000000000
     27929      9283  TIP3      H1              7.0487137344       33.0006188655       17.7487433578  SOLV      9272            0.0000000000
     27930      9283  TIP3      H2              7.6602315532       34.0558151451       18.5909770294  SOLV      9272            0.0000000000
     27931      9284  TIP3      OH2            16.5791407018       27.2983005188       18.1061247962  SOLV      9273            0.0000000000
     27932      9284  TIP3      H1             17.0586586713       26.9892335792       18.9079871836  SOLV      9273            0.0000000000
     27933      9284  TIP3      H2             17.2883747998       27.2754797702       17.4437882500  SOLV      9273            0.0000000000
     27934      9285  TIP3      OH2            11.0226362355       29.0339961051       18.5639338502  SOLV      9274            0.0000000000
     27935      9285  TIP3      H1             11.3834863706       28.1563066553       18.7949049927  SOLV      9274            0.0000000000
     27936      9285  TIP3      H2             10.6712744364       28.8458091241       17.6738135873  SOLV      9274            0.0000000000
     27937      9286  TIP3      OH2             4.4264348242       25.5013961529       18.2413463306  SOLV      9275            0.0000000000
     27938      9286  TIP3      H1              4.2052409296       26.2334098362       17.6266156868  SOLV      9275            0.0000000000
     27939      9286  TIP3      H2              3.9158685051       24.7760147523       17.8192470119  SOLV      9275            0.0000000000
     27940      9287  TIP3      OH2            11.3419712189       26.4492181642       14.4678954081  SOLV      9276            0.0000000000
     27941      9287  TIP3      H1             12.0300597826       26.2946544843       15.1574162027  SOLV      9276            0.0000000000
     27942      9287  TIP3      H2             11.9028797046       26.7774345736       13.7405389980  SOLV      9276            0.0000000000
     27943      9288  TIP3      OH2             0.6955004434       27.5494015525       19.3264083401  SOLV      9277            0.0000000000
     27944      9288  TIP3      H1              1.5199740141       27.3818254304       19.8204009072  SOLV      9277            0.0000000000
     27945      9288  TIP3      H2              0.8590344981       26.9898961536       18.5357940431  SOLV      9277            0.0000000000
     27946      9289  TIP3      OH2             5.1384987987       29.4491763074       17.3143321764  SOLV      9278            0.0000000000
     27947      9289  TIP3      H1              6.0784278656       29.1913830856       17.4232464496  SOLV      9278            0.0000000000
     27948      9289  TIP3      H2              4.7411695394       28.6175359844       16.9761565831  SOLV      9278            0.0000000000
     27949      9290  TIP3      OH2             4.3164264418       25.3430792268       22.6116128172  SOLV      9279            0.0000000000
     27950      9290  TIP3      H1              3.7376670431       25.7341505830       21.9291385742  SOLV      9279            0.0000000000
     27951      9290  TIP3      H2              3.7827259524       25.5285168766       23.4143297017  SOLV      9279            0.0000000000
     27952      9291  TIP3      OH2             7.3728675248       33.8526122147       12.1699106489  SOLV      9280            0.0000000000
     27953      9291  TIP3      H1              6.7552031923       33.3910346260       12.7717210764  SOLV      9280            0.0000000000
     27954      9291  TIP3      H2              7.3849666939       34.7352664378       12.6186107027  SOLV      9280            0.0000000000
     27955      9292  TIP3      OH2             5.4693511962       33.0852152429       20.4971318917  SOLV      9281            0.0000000000
     27956      9292  TIP3      H1              4.8158915640       33.7072202653       20.8998733113  SOLV      9281            0.0000000000
     27957      9292  TIP3      H2              5.7043720246       33.5522851120       19.6713347016  SOLV      9281            0.0000000000
     27958      9293  TIP3      OH2            13.3546125731       26.4544294318       16.2830995685  SOLV      9282            0.0000000000
     27959      9293  TIP3      H1             13.2549468073       26.0341153505       17.1469635206  SOLV      9282            0.0000000000
     27960      9293  TIP3      H2             14.0246039859       27.1337314559       16.4563080170  SOLV      9282            0.0000000000
     27961      9294  TIP3      OH2             3.0441416477       26.4873580092       20.4353417899  SOLV      9283            0.0000000000
     27962      9294  TIP3      H1              3.6368790809       27.2299809513       20.6968431143  SOLV      9283            0.0000000000
     27963      9294  TIP3      H2              3.5588989420       26.1112270642       19.6865110022  SOLV      9283            0.0000000000
     27964      9295  TIP3      OH2             3.5829004284       34.8262366174       21.3991278110  SOLV      9284            0.0000000000
     27965      9295  TIP3      H1              3.3691383153       35.7163024935       21.0373249343  SOLV      9284            0.0000000000
     27966      9295  TIP3      H2              3.0415683901       34.8313757718       22.1927261684  SOLV      9284            0.0000000000
     27967      9296  TIP3      OH2            14.5077803338       25.7715247870       19.6031009582  SOLV      9285            0.0000000000
     27968      9296  TIP3      H1             13.7729381142       26.3596991836       19.3818133616  SOLV      9285            0.0000000000
     27969      9296  TIP3      H2             15.2897495783       26.2711825748       19.3007042408  SOLV      9285            0.0000000000
     27970      9297  TIP3      OH2             7.8455904284       22.5032683415       19.7893410600  SOLV      9286            0.0000000000
     27971      9297  TIP3      H1              7.6510114841       21.5602434559       19.9462458103  SOLV      9286            0.0000000000
     27972      9297  TIP3      H2              7.0881665821       22.9183099900       20.2577547795  SOLV      9286            0.0000000000
     27973      9298  TIP3      OH2             8.9701115373       37.4590546924       12.9647663810  SOLV      9287            0.0000000000
     27974      9298  TIP3      H1              9.5135168503       36.6478873490       12.8138100977  SOLV      9287            0.0000000000
     27975      9298  TIP3      H2              9.6124285077       38.1226758753       12.6170848162  SOLV      9287            0.0000000000
     27976      9299  TIP3      OH2            10.4127820559       35.3431908726       12.1398652087  SOLV      9288            0.0000000000
     27977      9299  TIP3      H1             10.0651250141       34.5422461340       11.7254770771  SOLV      9288            0.0000000000
     27978      9299  TIP3      H2             10.8642364361       34.9773842610       12.9360343339  SOLV      9288            0.0000000000
     27979      9300  TIP3      OH2             7.2074366311       30.1913763233       12.3595733725  SOLV      9289            0.0000000000
     27980      9300  TIP3      H1              6.3706656672       30.6474261216       12.1351909607  SOLV      9289            0.0000000000
     27981      9300  TIP3      H2              7.6206874706       30.0694410250       11.4844319247  SOLV      9289            0.0000000000
     27982      9301  TIP3      OH2             6.7562327451       28.0538361264        9.4257314463  SOLV      9290            0.0000000000
     27983      9301  TIP3      H1              7.4427510842       28.5763995911        9.8769304333  SOLV      9290            0.0000000000
     27984      9301  TIP3      H2              7.3204218479       27.4243934922        8.9303275239  SOLV      9290            0.0000000000
     27985      9302  TIP3      OH2            10.6829930198       30.9837776376       11.9750057370  SOLV      9291            0.0000000000
     27986      9302  TIP3      H1             10.1568848619       31.1993316006       12.7795304076  SOLV      9291            0.0000000000
     27987      9302  TIP3      H2             11.5390383332       30.7460159189       12.3919068901  SOLV      9291            0.0000000000
     27988      9303  TIP3      OH2             3.0858769344       31.0041772066       16.2653296873  SOLV      9292            0.0000000000
     27989      9303  TIP3      H1              2.6361643789       30.4760677455       15.5771573659  SOLV      9292            0.0000000000
     27990      9303  TIP3      H2              3.8032905168       30.4033506719       16.5527959925  SOLV      9292            0.0000000000
     27991      9304  TIP3      OH2             4.2956403021       35.1946937699       17.6105895913  SOLV      9293            0.0000000000
     27992      9304  TIP3      H1              3.9310935409       34.8514019599       16.7754790173  SOLV      9293            0.0000000000
     27993      9304  TIP3      H2              5.1313045897       34.6974169827       17.7070600245  SOLV      9293            0.0000000000
     27994      9305  TIP3      OH2             4.3112267168       30.6745734699       19.7169317136  SOLV      9294            0.0000000000
     27995      9305  TIP3      H1              4.6644953140       30.4114501069       18.8425317489  SOLV      9294            0.0000000000
     27996      9305  TIP3      H2              4.7931732207       31.5039709713       19.9132701806  SOLV      9294            0.0000000000
     27997      9306  TIP3      OH2             8.9945500485       29.6357264040       10.2700840719  SOLV      9295            0.0000000000
     27998      9306  TIP3      H1              9.6239841756       30.1985982353       10.7747901087  SOLV      9295            0.0000000000
     27999      9306  TIP3      H2              9.2797789739       29.8469266130        9.3446174845  SOLV      9295            0.0000000000
     28000      9307  TIP3      OH2             3.2227015649       31.8819971688       23.9424843975  SOLV      9296            0.0000000000
     28001      9307  TIP3      H1              3.1983560966       32.5134909284       24.6842160563  SOLV      9296            0.0000000000
     28002      9307  TIP3      H2              2.3174265415       31.5291045670       24.0366388320  SOLV      9296            0.0000000000
     28003      9308  TIP3      OH2             6.5006596919       36.3003842599       12.9032492717  SOLV      9297            0.0000000000
     28004      9308  TIP3      H1              7.3122794437       36.8367165082       13.0121551419  SOLV      9297            0.0000000000
     28005      9308  TIP3      H2              5.8018189407       36.9665153307       12.9149343863  SOLV      9297            0.0000000000
     28006      9309  TIP3      OH2            14.2125974630       21.9579318899       10.7895457910  SOLV      9298            0.0000000000
     28007      9309  TIP3      H1             13.3942803149       22.1891772679       11.2747548709  SOLV      9298            0.0000000000
     28008      9309  TIP3      H2             14.3697415744       22.7813843047       10.2818331393  SOLV      9298            0.0000000000
     28009      9310  TIP3      OH2             1.8236978740       29.5390774120       14.1600027166  SOLV      9299            0.0000000000
     28010      9310  TIP3      H1              1.3164787518       30.3658344984       14.0403747809  SOLV      9299            0.0000000000
     28011      9310  TIP3      H2              1.1329032997       28.8649639192       14.1381663723  SOLV      9299            0.0000000000
     28012      9311  TIP3      OH2            12.2095144771       35.6466313595        6.2749980724  SOLV      9300            0.0000000000
     28013      9311  TIP3      H1             12.3152195555       36.6067261430        6.0907585406  SOLV      9300            0.0000000000
     28014      9311  TIP3      H2             13.1314047540       35.3305648106        6.1433007207  SOLV      9300            0.0000000000
     28015      9312  TIP3      OH2            -0.5644251132       33.1623065042       23.2483691928  SOLV      9301            0.0000000000
     28016      9312  TIP3      H1             -1.1926983346       32.8530973680       22.5684921020  SOLV      9301            0.0000000000
     28017      9312  TIP3      H2             -0.1322927533       32.3300700538       23.5532052893  SOLV      9301            0.0000000000
     28018      9313  TIP3      OH2            -1.9106562427       35.0165496602       19.8619575608  SOLV      9302            0.0000000000
     28019      9313  TIP3      H1             -1.0521284830       35.0357415369       19.4206921912  SOLV      9302            0.0000000000
     28020      9313  TIP3      H2             -2.0476986735       35.9380531119       20.1167986765  SOLV      9302            0.0000000000
     28021      9314  TIP3      OH2             5.3438176293       38.9939792686       10.9626018085  SOLV      9303            0.0000000000
     28022      9314  TIP3      H1              4.8835547893       38.6922285187       10.1604591130  SOLV      9303            0.0000000000
     28023      9314  TIP3      H2              4.6713645637       39.5412978040       11.3966849285  SOLV      9303            0.0000000000
     28024      9315  TIP3      OH2            -0.2826666918       37.5263215146       14.9110955214  SOLV      9304            0.0000000000
     28025      9315  TIP3      H1              0.1786699662       37.3991722843       15.7691837382  SOLV      9304            0.0000000000
     28026      9315  TIP3      H2             -0.8127155037       36.6976939271       14.8895723826  SOLV      9304            0.0000000000
     28027      9316  TIP3      OH2             7.3383264062       37.8281714611        7.4287766029  SOLV      9305            0.0000000000
     28028      9316  TIP3      H1              7.9223436310       37.1128267517        7.0946206521  SOLV      9305            0.0000000000
     28029      9316  TIP3      H2              7.6919321054       37.9500775787        8.3348966822  SOLV      9305            0.0000000000
     28030      9317  TIP3      OH2             7.8565659625       38.3270916489       10.1301448506  SOLV      9306            0.0000000000
     28031      9317  TIP3      H1              6.9840278191       38.4914407657       10.5555305581  SOLV      9306            0.0000000000
     28032      9317  TIP3      H2              8.3807414353       37.9956877140       10.8772286172  SOLV      9306            0.0000000000
     28033      9318  TIP3      OH2             1.1405235424       35.2343992161       23.4954997688  SOLV      9307            0.0000000000
     28034      9318  TIP3      H1              1.8752309687       34.6775307101       23.8103657680  SOLV      9307            0.0000000000
     28035      9318  TIP3      H2              0.5544572752       34.5493017661       23.0969376096  SOLV      9307            0.0000000000
     28036      9319  TIP3      OH2             5.4890565483       23.2821423828       21.0960643187  SOLV      9308            0.0000000000
     28037      9319  TIP3      H1              4.6085378271       22.9926263003       20.7763069287  SOLV      9308            0.0000000000
     28038      9319  TIP3      H2              5.2203136041       24.0942167949       21.5713914921  SOLV      9308            0.0000000000
     28039      9320  TIP3      OH2            10.8273556228       24.4311125295       22.9994623188  SOLV      9309            0.0000000000
     28040      9320  TIP3      H1             11.4961754905       24.1116637736       23.6381399180  SOLV      9309            0.0000000000
     28041      9320  TIP3      H2              9.9802091496       24.2530391817       23.4586363688  SOLV      9309            0.0000000000
     28042      9321  TIP3      OH2             9.8462905057       30.1211584073        7.7685307153  SOLV      9310            0.0000000000
     28043      9321  TIP3      H1              9.4366309225       29.8934373489        6.9127243063  SOLV      9310            0.0000000000
     28044      9321  TIP3      H2             10.7221131157       30.4441592984        7.4796983667  SOLV      9310            0.0000000000
     28045      9322  TIP3      OH2             6.9297082180       23.7626332015       10.7810851855  SOLV      9311            0.0000000000
     28046      9322  TIP3      H1              6.5739880689       23.7194817701       11.6914199123  SOLV      9311            0.0000000000
     28047      9322  TIP3      H2              6.5248580857       22.9517975085       10.4128559422  SOLV      9311            0.0000000000
     28048      9323  TIP3      OH2             4.7952891179       28.4534643641       21.2216073733  SOLV      9312            0.0000000000
     28049      9323  TIP3      H1              4.4108161105       28.7255589229       22.0797800628  SOLV      9312            0.0000000000
     28050      9323  TIP3      H2              4.6380484500       29.2694780821       20.6950056454  SOLV      9312            0.0000000000
     28051      9324  TIP3      OH2             3.6612723923       27.3076417611       16.3834019340  SOLV      9313            0.0000000000
     28052      9324  TIP3      H1              2.7222986255       27.0951139178       16.5683297500  SOLV      9313            0.0000000000
     28053      9324  TIP3      H2              3.7500424813       26.9044566094       15.4903762940  SOLV      9313            0.0000000000
     28054      9325  TIP3      OH2             8.5594731969       28.1586620739       13.6941245168  SOLV      9314            0.0000000000
     28055      9325  TIP3      H1              8.0732940209       28.8832665469       13.2476594258  SOLV      9314            0.0000000000
     28056      9325  TIP3      H2              9.1122748877       27.8104340848       12.9651049396  SOLV      9314            0.0000000000
     28057      9326  TIP3      OH2            10.0669301101       28.4196863670       16.0512358658  SOLV      9315            0.0000000000
     28058      9326  TIP3      H1              9.4413824174       28.6729436140       15.3413805147  SOLV      9315            0.0000000000
     28059      9326  TIP3      H2             10.4639435620       27.6394674211       15.6104004911  SOLV      9315            0.0000000000
     28060      9327  TIP3      OH2             2.9676271711       28.7393436552       23.3507534422  SOLV      9316            0.0000000000
     28061      9327  TIP3      H1              3.3634485150       29.3648380330       23.9801451009  SOLV      9316            0.0000000000
     28062      9327  TIP3      H2              2.8787085694       27.9359095598       23.8939474903  SOLV      9316            0.0000000000
     28063      9328  TIP3      OH2             3.4981589357       23.5344555478       10.4166278546  SOLV      9317            0.0000000000
     28064      9328  TIP3      H1              3.3943163288       23.5277511687       11.3888328923  SOLV      9317            0.0000000000
     28065      9328  TIP3      H2              2.7291075723       24.0793911264       10.1575757669  SOLV      9317            0.0000000000
     28066      9329  TIP3      OH2            -1.0663824827       23.8995521018       19.1675781703  SOLV      9318            0.0000000000
     28067      9329  TIP3      H1             -0.3381102482       24.2703966506       19.7070617474  SOLV      9318            0.0000000000
     28068      9329  TIP3      H2             -0.6390473371       23.6936214627       18.3251684742  SOLV      9318            0.0000000000
     28069      9330  TIP3      OH2            -1.4496479458       23.7427843426       14.3189526819  SOLV      9319            0.0000000000
     28070      9330  TIP3      H1             -0.9782925194       24.0960890536       13.5336954335  SOLV      9319            0.0000000000
     28071      9330  TIP3      H2             -2.0413567233       24.4968017098       14.5008569958  SOLV      9319            0.0000000000
     28072      9331  TIP3      OH2             9.7415447129       30.8502415071       20.2047399214  SOLV      9320            0.0000000000
     28073      9331  TIP3      H1             10.3574152595       30.3023484816       19.6689939294  SOLV      9320            0.0000000000
     28074      9331  TIP3      H2              9.7275234350       30.3276512280       21.0351582947  SOLV      9320            0.0000000000
     28075      9332  TIP3      OH2             6.9801262473       25.4783564259       16.9643123803  SOLV      9321            0.0000000000
     28076      9332  TIP3      H1              6.1572088257       25.5015073229       17.4942738349  SOLV      9321            0.0000000000
     28077      9332  TIP3      H2              7.6634861553       25.4752986173       17.6549351568  SOLV      9321            0.0000000000
     28078      9333  TIP3      OH2             1.2579381102       26.1118857416       17.0644347701  SOLV      9322            0.0000000000
     28079      9333  TIP3      H1              0.3227603966       26.1912890612       16.7584330425  SOLV      9322            0.0000000000
     28080      9333  TIP3      H2              1.4937330373       25.2004330974       16.8150442287  SOLV      9322            0.0000000000
     28081      9334  TIP3      OH2             3.8912431998       26.0157113372       13.9843867971  SOLV      9323            0.0000000000
     28082      9334  TIP3      H1              4.8202075485       26.1929472746       13.7482763882  SOLV      9323            0.0000000000
     28083      9334  TIP3      H2              3.4020670906       26.2403054104       13.1576057334  SOLV      9323            0.0000000000
     28084      9335  TIP3      OH2            11.6175363767       26.3831727726       19.0130966543  SOLV      9324            0.0000000000
     28085      9335  TIP3      H1             11.2792524123       26.4697857564       19.9272140186  SOLV      9324            0.0000000000
     28086      9335  TIP3      H2             10.9954060895       25.7282381410       18.6463659684  SOLV      9324            0.0000000000
     28087      9336  TIP3      OH2             2.4481187118       26.3424463351       11.7147717359  SOLV      9325            0.0000000000
     28088      9336  TIP3      H1              1.7135542500       25.9275743285       11.2302792129  SOLV      9325            0.0000000000
     28089      9336  TIP3      H2              2.9546000393       26.7399719799       10.9761610928  SOLV      9325            0.0000000000
     28090      9337  TIP3      OH2             7.7658333793       28.7735676816       17.9375360528  SOLV      9326            0.0000000000
     28091      9337  TIP3      H1              8.5330120089       28.4108969569       17.4644891804  SOLV      9326            0.0000000000
     28092      9337  TIP3      H2              7.8334916603       28.3522093886       18.8143149684  SOLV      9326            0.0000000000
     28093      9338  TIP3      OH2             2.9223104281       23.6903816203       16.8020759007  SOLV      9327            0.0000000000
     28094      9338  TIP3      H1              2.5510119412       22.9259418689       17.2947586602  SOLV      9327            0.0000000000
     28095      9338  TIP3      H2              3.3308920816       23.2552585007       16.0422856079  SOLV      9327            0.0000000000
     28096      9339  TIP3      OH2             7.4935079526       27.8509697637       20.8688462062  SOLV      9328            0.0000000000
     28097      9339  TIP3      H1              6.5762124954       28.1785439075       20.9765605181  SOLV      9328            0.0000000000
     28098      9339  TIP3      H2              8.0182243324       28.5458239184       21.3073540906  SOLV      9328            0.0000000000
     28099      9340  TIP3      OH2             4.9602611772       31.7478063117       11.8324995232  SOLV      9329            0.0000000000
     28100      9340  TIP3      H1              4.2411243194       31.1048578363       11.6418430212  SOLV      9329            0.0000000000
     28101      9340  TIP3      H2              4.6754259315       32.0448868800       12.7329205979  SOLV      9329            0.0000000000
     28102      9341  TIP3      OH2             9.4379212521       24.7823006563       10.4933340204  SOLV      9330            0.0000000000
     28103      9341  TIP3      H1              8.4775024053       24.5735362952       10.5784233979  SOLV      9330            0.0000000000
     28104      9341  TIP3      H2              9.4879078885       25.7264441984       10.7409897701  SOLV      9330            0.0000000000
     28105      9342  TIP3      OH2            10.1147123255       27.3216418249       11.5097394543  SOLV      9331            0.0000000000
     28106      9342  TIP3      H1             11.0786070466       27.3567843955       11.6683970914  SOLV      9331            0.0000000000
     28107      9342  TIP3      H2              9.9576751583       28.1227327363       10.9765080869  SOLV      9331            0.0000000000
     28108      9343  TIP3      OH2             1.7850196034       31.9219325220       18.5486747549  SOLV      9332            0.0000000000
     28109      9343  TIP3      H1              2.1696819462       31.7028496326       17.6746500659  SOLV      9332            0.0000000000
     28110      9343  TIP3      H2              2.3170425645       31.3646736462       19.1391007318  SOLV      9332            0.0000000000
     28111      9344  TIP3      OH2             0.5854080948       31.0331286809       24.5737734430  SOLV      9333            0.0000000000
     28112      9344  TIP3      H1              1.0688007494       30.9796469009       25.4270456174  SOLV      9333            0.0000000000
     28113      9344  TIP3      H2             -0.0435762294       30.3065330827       24.6733064665  SOLV      9333            0.0000000000
     28114      9345  TIP3      OH2            14.5000822800       28.2366489941        9.8225626625  SOLV      9334            0.0000000000
     28115      9345  TIP3      H1             13.8805844658       27.8164457889        9.1792495385  SOLV      9334            0.0000000000
     28116      9345  TIP3      H2             14.4819170508       29.1433554501        9.4445284894  SOLV      9334            0.0000000000
     28117      9346  TIP3      OH2            11.3893214105       36.3932032643        8.8884691786  SOLV      9335            0.0000000000
     28118      9346  TIP3      H1             11.2886577597       35.7575042992        9.6126794711  SOLV      9335            0.0000000000
     28119      9346  TIP3      H2             11.7329195981       35.8482520952        8.1616951868  SOLV      9335            0.0000000000
     28120      9347  TIP3      OH2            10.9316482586       32.8762076875       17.0770089784  SOLV      9336            0.0000000000
     28121      9347  TIP3      H1             10.1230567535       32.3243592026       17.0773459774  SOLV      9336            0.0000000000
     28122      9347  TIP3      H2             11.5976185842       32.2205455498       16.8160757408  SOLV      9336            0.0000000000
     28123      9348  TIP3      OH2             2.7637698228       34.8450526439       14.9302288151  SOLV      9337            0.0000000000
     28124      9348  TIP3      H1              2.4497490765       35.6056240958       14.4088292783  SOLV      9337            0.0000000000
     28125      9348  TIP3      H2              2.0227468851       34.2089272644       14.7874956701  SOLV      9337            0.0000000000
     28126      9349  TIP3      OH2            -1.5958039289       27.9267050546       11.8701204028  SOLV      9338            0.0000000000
     28127      9349  TIP3      H1             -1.2162872760       28.8183739026       12.0529103350  SOLV      9338            0.0000000000
     28128      9349  TIP3      H2             -2.3563509071       27.9444212452       12.4916848672  SOLV      9338            0.0000000000
     28129      9350  TIP3      OH2             4.2670039563       32.6502748237       14.2779044185  SOLV      9339            0.0000000000
     28130      9350  TIP3      H1              3.8127685850       33.5014434006       14.4517665328  SOLV      9339            0.0000000000
     28131      9350  TIP3      H2              3.8155716075       32.0979975345       14.9476160306  SOLV      9339            0.0000000000
     28132      9351  TIP3      OH2             1.9399122137       37.1912194251       13.2771485605  SOLV      9340            0.0000000000
     28133      9351  TIP3      H1              1.1029061476       37.3290215175       13.7680190688  SOLV      9340            0.0000000000
     28134      9351  TIP3      H2              2.3172517444       38.0980817355       13.3331183890  SOLV      9340            0.0000000000
     28135      9352  TIP3      OH2             9.4099106621       34.1516041222       19.1856821561  SOLV      9341            0.0000000000
     28136      9352  TIP3      H1             10.1604896109       34.3267858365       19.7958961417  SOLV      9341            0.0000000000
     28137      9352  TIP3      H2              9.8877182169       33.6922248083       18.4653519863  SOLV      9341            0.0000000000
     28138      9353  TIP3      OH2            12.4961507488       38.3728882272        6.0897284240  SOLV      9342            0.0000000000
     28139      9353  TIP3      H1             13.0457789010       39.1419161575        5.8514786973  SOLV      9342            0.0000000000
     28140      9353  TIP3      H2             11.6973086007       38.8369232762        6.4150442513  SOLV      9342            0.0000000000
     28141      9354  TIP3      OH2             2.7014861230       26.1224718635       24.7454972586  SOLV      9343            0.0000000000
     28142      9354  TIP3      H1              1.7422707632       26.1946856012       24.9025712554  SOLV      9343            0.0000000000
     28143      9354  TIP3      H2              2.9942669503       25.6251333281       25.5254349990  SOLV      9343            0.0000000000
     28144      9355  TIP3      OH2            10.6630057606       33.0341114911       10.1074077862  SOLV      9344            0.0000000000
     28145      9355  TIP3      H1             10.6130984943       32.3106472637       10.7598594223  SOLV      9344            0.0000000000
     28146      9355  TIP3      H2             11.6115469595       32.9835926068        9.8693850859  SOLV      9344            0.0000000000
     28147      9356  TIP3      OH2             0.0092549075       37.1746773693       21.1089131459  SOLV      9345            0.0000000000
     28148      9356  TIP3      H1              0.4434946173       36.3117236524       21.1107080091  SOLV      9345            0.0000000000
     28149      9356  TIP3      H2              0.5923193825       37.6571403819       21.7117424754  SOLV      9345            0.0000000000
     28150      9357  TIP3      OH2             3.1413471484       33.3144765039        7.9304982967  SOLV      9346            0.0000000000
     28151      9357  TIP3      H1              3.0321011463       32.3728969167        7.6848618793  SOLV      9346            0.0000000000
     28152      9357  TIP3      H2              2.8166426160       33.2984473127        8.8588616254  SOLV      9346            0.0000000000
     28153      9358  TIP3      OH2             2.3808442794       33.5093479913       10.5305031447  SOLV      9347            0.0000000000
     28154      9358  TIP3      H1              2.4989976609       33.1310186807       11.4143576973  SOLV      9347            0.0000000000
     28155      9358  TIP3      H2              2.2862738266       34.4663825276       10.7315599329  SOLV      9347            0.0000000000
     28156      9359  TIP3      OH2            -0.6817770874       30.3939170476       12.5151738884  SOLV      9348            0.0000000000
     28157      9359  TIP3      H1             -0.4785922662       31.0559600418       13.2139301100  SOLV      9348            0.0000000000
     28158      9359  TIP3      H2             -0.5112114526       30.9572791968       11.7444829273  SOLV      9348            0.0000000000
     28159      9360  TIP3      OH2            11.1056766050       26.8284630550       21.7335250846  SOLV      9349            0.0000000000
     28160      9360  TIP3      H1             12.0465582110       26.9080196422       21.9155490735  SOLV      9349            0.0000000000
     28161      9360  TIP3      H2             10.8844846699       25.9838756216       22.1854431264  SOLV      9349            0.0000000000
     28162      9361  TIP3      OH2             9.9440650028       24.2702592542       13.3224820101  SOLV      9350            0.0000000000
     28163      9361  TIP3      H1              9.8015801488       24.4901025618       12.3825981282  SOLV      9350            0.0000000000
     28164      9361  TIP3      H2             10.3308545792       25.1024525722       13.6717545424  SOLV      9350            0.0000000000
     28165      9362  TIP3      OH2             5.2034811658       35.3177226651        9.8913513754  SOLV      9351            0.0000000000
     28166      9362  TIP3      H1              4.3229929483       35.3484345574       10.3306915831  SOLV      9351            0.0000000000
     28167      9362  TIP3      H2              5.1679655636       36.2204307318        9.4917745940  SOLV      9351            0.0000000000
     28168      9363  TIP3      OH2             6.7456776024       26.1498401637       14.2886056035  SOLV      9352            0.0000000000
     28169      9363  TIP3      H1              7.3858280695       26.8769516588       14.1343016243  SOLV      9352            0.0000000000
     28170      9363  TIP3      H2              6.8108502049       26.0415468856       15.2619698069  SOLV      9352            0.0000000000
     28171      9364  TIP3      OH2             9.5196545449       29.2547282313       22.4276120681  SOLV      9353            0.0000000000
     28172      9364  TIP3      H1              9.3341166496       29.4247880112       23.3648803829  SOLV      9353            0.0000000000
     28173      9364  TIP3      H2              9.9520058088       28.3827381855       22.4629076074  SOLV      9353            0.0000000000
     28174      9365  TIP3      OH2             8.1744356350       23.3081698070       15.2717367219  SOLV      9354            0.0000000000
     28175      9365  TIP3      H1              8.0739682418       24.0970612254       15.8372046370  SOLV      9354            0.0000000000
     28176      9365  TIP3      H2              8.8205938541       23.6425730238       14.6070052321  SOLV      9354            0.0000000000
     28177      9366  TIP3      OH2             2.5629022057       36.1920878872       10.8150486468  SOLV      9355            0.0000000000
     28178      9366  TIP3      H1              2.1677318462       36.9027452426       10.2640410127  SOLV      9355            0.0000000000
     28179      9366  TIP3      H2              2.3147014857       36.5101714716       11.7161053549  SOLV      9355            0.0000000000
     28180      9367  TIP3      OH2             3.3433211521       23.3941704408       13.1811380204  SOLV      9356            0.0000000000
     28181      9367  TIP3      H1              3.3138944847       24.2978813136       13.5557934947  SOLV      9356            0.0000000000
     28182      9367  TIP3      H2              4.3062272599       23.2250695567       13.2569380338  SOLV      9356            0.0000000000
     28183      9368  TIP3      OH2            12.3231446471       30.3575354937       16.0030188791  SOLV      9357            0.0000000000
     28184      9368  TIP3      H1             11.5599221728       29.7787306011       16.1680856386  SOLV      9357            0.0000000000
     28185      9368  TIP3      H2             13.0338720206       29.9048368668       16.5120665899  SOLV      9357            0.0000000000
     28186      9369  TIP3      OH2            -0.5784474160       32.5976879678       10.5247258558  SOLV      9358            0.0000000000
     28187      9369  TIP3      H1              0.0427254027       33.0908885726       11.0853494616  SOLV      9358            0.0000000000
     28188      9369  TIP3      H2              0.0303145991       32.1015272946        9.9403733154  SOLV      9358            0.0000000000
     28189      9370  TIP3      OH2            -1.0661295158       25.2588697032       12.0752599661  SOLV      9359            0.0000000000
     28190      9370  TIP3      H1             -1.0344009749       26.2373204545       12.0748674252  SOLV      9359            0.0000000000
     28191      9370  TIP3      H2             -1.8660890081       25.0954289299       11.5637856139  SOLV      9359            0.0000000000
     28192      9371  TIP3      OH2             2.8434593144       22.4935673740       20.7576134509  SOLV      9360            0.0000000000
     28193      9371  TIP3      H1              2.5373689445       22.1565294925       19.8886369911  SOLV      9360            0.0000000000
     28194      9371  TIP3      H2              2.7209440795       21.7132942657       21.3342898875  SOLV      9360            0.0000000000
     28195      9372  TIP3      OH2            -1.7069687667       35.1470545105       15.0492349469  SOLV      9361            0.0000000000
     28196      9372  TIP3      H1             -2.4973450540       35.0341497077       14.4976048963  SOLV      9361            0.0000000000
     28197      9372  TIP3      H2             -1.1400677435       34.4052171053       14.7503702934  SOLV      9361            0.0000000000
     28198      9373  TIP3      OH2             4.3705040910       35.4896014049        6.8920271362  SOLV      9362            0.0000000000
     28199      9373  TIP3      H1              3.8423849196       34.8114180114        7.3784912850  SOLV      9362            0.0000000000
     28200      9373  TIP3      H2              4.9505029348       34.9046887881        6.3908845774  SOLV      9362            0.0000000000
     28201      9374  TIP3      OH2             9.0539695963       35.8617658583        6.3421814088  SOLV      9363            0.0000000000
     28202      9374  TIP3      H1              9.9825229420       35.9747373147        6.5955923211  SOLV      9363            0.0000000000
     28203      9374  TIP3      H2              9.1329644880       35.7424946473        5.3760782258  SOLV      9363            0.0000000000
     28204      9375  TIP3      OH2             0.9335514763       30.6494582685        9.3077189773  SOLV      9364            0.0000000000
     28205      9375  TIP3      H1              1.4690909702       30.3336594754       10.0588919337  SOLV      9364            0.0000000000
     28206      9375  TIP3      H2              1.6129059637       30.6619664035        8.6005890146  SOLV      9364            0.0000000000
     28207      9376  TIP3      OH2             2.4784860740       30.6946754442       26.6431200367  SOLV      9365            0.0000000000
     28208      9376  TIP3      H1              2.8803958039       30.4835253641       27.5148518729  SOLV      9365            0.0000000000
     28209      9376  TIP3      H2              2.3068538476       31.6578841286       26.7145853610  SOLV      9365            0.0000000000
     28210      9377  TIP3      OH2             2.9229122997       29.8066457664       11.4444560995  SOLV      9366            0.0000000000
     28211      9377  TIP3      H1              2.5897087016       29.5147962559       12.3152671591  SOLV      9366            0.0000000000
     28212      9377  TIP3      H2              3.2607069873       28.9745740447       11.0571079520  SOLV      9366            0.0000000000
     28213      9378  TIP3      OH2             5.5788935920       30.2236594416       23.6234761763  SOLV      9367            0.0000000000
     28214      9378  TIP3      H1              4.9275110184       30.9450106792       23.7250554564  SOLV      9367            0.0000000000
     28215      9378  TIP3      H2              6.2591630760       30.6612639447       23.0609432675  SOLV      9367            0.0000000000
     28216      9379  TIP3      OH2             3.9696759241       27.6724816554        9.8685804613  SOLV      9368            0.0000000000
     28217      9379  TIP3      H1              3.7367814888       27.7697174938        8.9233350191  SOLV      9368            0.0000000000
     28218      9379  TIP3      H2              4.9480462251       27.6671749725        9.8131516710  SOLV      9368            0.0000000000
     28219      9380  TIP3      OH2            12.1848324322       30.8951732512        6.5399644471  SOLV      9369            0.0000000000
     28220      9380  TIP3      H1             11.9759949883       30.4493332791        5.6942302806  SOLV      9369            0.0000000000
     28221      9380  TIP3      H2             11.8797363615       31.8047498896        6.3145499970  SOLV      9369            0.0000000000
     28222      9381  TIP3      OH2             6.7601030938       28.1465271093       24.9332995777  SOLV      9370            0.0000000000
     28223      9381  TIP3      H1              6.7870449520       27.3979072969       24.3040865736  SOLV      9370            0.0000000000
     28224      9381  TIP3      H2              6.3398466591       28.8558140433       24.3910689219  SOLV      9370            0.0000000000
     28225      9382  TIP3      OH2             6.9077888069       26.0810102172       23.0531541395  SOLV      9371            0.0000000000
     28226      9382  TIP3      H1              7.1752666597       26.5514548539       22.2387877080  SOLV      9371            0.0000000000
     28227      9382  TIP3      H2              5.9630218618       25.8836481496       22.8725890364  SOLV      9371            0.0000000000
     28228      9383  TIP3      OH2             7.1711753616       31.2934660838       21.6727797465  SOLV      9372            0.0000000000
     28229      9383  TIP3      H1              8.0067597907       31.4218571336       21.1978641878  SOLV      9372            0.0000000000
     28230      9383  TIP3      H2              6.5838144219       31.9682431597       21.2726229685  SOLV      9372            0.0000000000
     28231      9384  TIP3      OH2             5.5742931949       29.3256395052       27.1462410938  SOLV      9373            0.0000000000
     28232      9384  TIP3      H1              4.7939334000       28.7740462214       27.3413040279  SOLV      9373            0.0000000000
     28233      9384  TIP3      H2              5.9205637419       28.8662535627       26.3541441841  SOLV      9373            0.0000000000
     28234      9385  TIP3      OH2             8.1952094278       23.6897074339       23.6543488409  SOLV      9374            0.0000000000
     28235      9385  TIP3      H1              7.6961065857       24.5172384880       23.4726419192  SOLV      9374            0.0000000000
     28236      9385  TIP3      H2              7.4855046550       23.0170436329       23.6058637760  SOLV      9374            0.0000000000
     28237      9386  TIP3      OH2             9.5195111745       28.2698327394       25.4736079979  SOLV      9375            0.0000000000
     28238      9386  TIP3      H1              9.6494744158       28.9565165028       26.1452043215  SOLV      9375            0.0000000000
     28239      9386  TIP3      H2              8.5467882304       28.2555843442       25.3825850026  SOLV      9375            0.0000000000
     28240      9387  TIP3      OH2             3.9688411003       27.0680584828       27.8527393397  SOLV      9376            0.0000000000
     28241      9387  TIP3      H1              4.0437146921       26.1505442657       27.5348361829  SOLV      9376            0.0000000000
     28242      9387  TIP3      H2              4.4392013223       27.0191710060       28.7046114585  SOLV      9376            0.0000000000
     28243      9388  TIP3      OH2             9.1779759861       23.7989229523       26.1531594332  SOLV      9377            0.0000000000
     28244      9388  TIP3      H1              9.8204229585       23.0665458549       26.1026322201  SOLV      9377            0.0000000000
     28245      9388  TIP3      H2              8.7489793752       23.7289554606       25.2768499216  SOLV      9377            0.0000000000
     28246      9389  TIP3      OH2             8.8657091252       25.6759794784       28.0331568504  SOLV      9378            0.0000000000
     28247      9389  TIP3      H1              8.9330808674       25.1469620413       27.2067901169  SOLV      9378            0.0000000000
     28248      9389  TIP3      H2              8.6660567938       26.5665424103       27.7178473349  SOLV      9378            0.0000000000
     28249      9390  TIP3      OH2             2.1123658862       38.2322828960        9.0070127333  SOLV      9379            0.0000000000
     28250      9390  TIP3      H1              3.0812321138       38.1819867402        8.9324071396  SOLV      9379            0.0000000000
     28251      9390  TIP3      H2              1.9012815803       38.5635168427        8.1223727289  SOLV      9379            0.0000000000
     28252      9391  TIP3      OH2            -3.2899971038       32.2096240566       10.6028609502  SOLV      9380            0.0000000000
     28253      9391  TIP3      H1             -2.3529117703       32.4358058308       10.7950514175  SOLV      9380            0.0000000000
     28254      9391  TIP3      H2             -3.2236471474       31.2441676329       10.4564138804  SOLV      9380            0.0000000000
     28255      9392  TIP3      OH2            -4.1042992036       38.3362700868       15.1926502843  SOLV      9381            0.0000000000
     28256      9392  TIP3      H1             -4.6821352146       37.6169156169       14.8583413089  SOLV      9381            0.0000000000
     28257      9392  TIP3      H2             -3.6627652448       37.8582612423       15.9384642212  SOLV      9381            0.0000000000
     28258      9393  TIP3      OH2            -2.9005156563       37.0596854335       17.2328553278  SOLV      9382            0.0000000000
     28259      9393  TIP3      H1             -2.6835560146       36.1178926690       17.1873930435  SOLV      9382            0.0000000000
     28260      9393  TIP3      H2             -2.1859939134       37.4093065330       17.7969804295  SOLV      9382            0.0000000000
     28261      9394  TIP3      OH2            13.4114230534       32.8755189063        9.7472257406  SOLV      9383            0.0000000000
     28262      9394  TIP3      H1             14.1413738230       33.4641026554        9.4644664738  SOLV      9383            0.0000000000
     28263      9394  TIP3      H2             13.8135225939       32.4481552186       10.5381704618  SOLV      9383            0.0000000000
     28264      9395  TIP3      OH2            14.6179635468       31.4341791542       11.6909849858  SOLV      9384            0.0000000000
     28265      9395  TIP3      H1             14.0558322079       31.0374283171       12.3920063138  SOLV      9384            0.0000000000
     28266      9395  TIP3      H2             15.3564829457       31.8381689186       12.1919774220  SOLV      9384            0.0000000000
     28267      9396  TIP3      OH2            14.1932366921       30.5845387751        8.3558744577  SOLV      9385            0.0000000000
     28268      9396  TIP3      H1             13.4773137984       30.5738107221        7.6801386701  SOLV      9385            0.0000000000
     28269      9396  TIP3      H2             13.8819371292       31.3323890838        8.9040876339  SOLV      9385            0.0000000000
     28270      9397  TIP3      OH2            12.8619834184       27.3071877214        7.8663896216  SOLV      9386            0.0000000000
     28271      9397  TIP3      H1             12.4606070399       27.5903384430        7.0376487131  SOLV      9386            0.0000000000
     28272      9397  TIP3      H2             12.6527421857       26.3471521935        7.8448834497  SOLV      9386            0.0000000000
     28273      9398  TIP3      OH2            12.9070982392       30.0458032307       13.3336432589  SOLV      9387            0.0000000000
     28274      9398  TIP3      H1             12.9843525940       29.0796876480       13.2660319403  SOLV      9387            0.0000000000
     28275      9398  TIP3      H2             12.7391553394       30.1806953013       14.2940439986  SOLV      9387            0.0000000000
     28276      9399  TIP3      OH2            -0.8197478260       30.8082264792       20.8466821606  SOLV      9388            0.0000000000
     28277      9399  TIP3      H1             -0.8512276400       30.4571060141       19.9332151993  SOLV      9388            0.0000000000
     28278      9399  TIP3      H2              0.1545448472       30.7983713493       21.0086219744  SOLV      9388            0.0000000000
     28279      9400  TIP3      OH2            12.3237390330       24.6484035194        7.7154983509  SOLV      9389            0.0000000000
     28280      9400  TIP3      H1             13.0488326575       24.3086213813        8.2765977498  SOLV      9389            0.0000000000
     28281      9400  TIP3      H2             11.5832567271       24.0478059393        7.9042289330  SOLV      9389            0.0000000000
     28282      9401  TIP3      OH2            12.9171796134       27.2308493324       12.2612907356  SOLV      9390            0.0000000000
     28283      9401  TIP3      H1             13.3221571276       26.3403095408       12.3974170236  SOLV      9390            0.0000000000
     28284      9401  TIP3      H2             13.4924624766       27.5640907953       11.5494158003  SOLV      9390            0.0000000000
     28285      9402  TIP3      OH2            14.4672649766       29.1976846795       17.2639075084  SOLV      9391            0.0000000000
     28286      9402  TIP3      H1             15.3773447616       29.3728796248       16.9438107714  SOLV      9391            0.0000000000
     28287      9402  TIP3      H2             14.6710183348       28.8837836846       18.1550236119  SOLV      9391            0.0000000000
     28288      9403  TIP3      OH2             1.2927068327       27.5700721777       27.4001432288  SOLV      9392            0.0000000000
     28289      9403  TIP3      H1              2.2664861713       27.6523683246       27.4783150202  SOLV      9392            0.0000000000
     28290      9403  TIP3      H2              1.1433608597       26.7401210910       27.8908305478  SOLV      9392            0.0000000000
     28291      9404  TIP3      OH2            14.0008347178       24.7427590209       12.6618842870  SOLV      9393            0.0000000000
     28292      9404  TIP3      H1             14.4842011961       24.5819038937       13.4996070678  SOLV      9393            0.0000000000
     28293      9404  TIP3      H2             13.3895525355       23.9772352838       12.6547523950  SOLV      9393            0.0000000000
     28294      9405  TIP3      OH2             0.9934826105       24.5856271189       20.8918645216  SOLV      9394            0.0000000000
     28295      9405  TIP3      H1              1.6178377887       23.8366299650       20.9546711546  SOLV      9394            0.0000000000
     28296      9405  TIP3      H2              1.6125975983       25.3304226491       20.7838903384  SOLV      9394            0.0000000000
     28297      9406  TIP3      OH2            -1.0087123736       27.2811186378       21.5726684474  SOLV      9395            0.0000000000
     28298      9406  TIP3      H1             -0.4996812515       27.3105014460       20.7376389019  SOLV      9395            0.0000000000
     28299      9406  TIP3      H2             -0.7377745916       28.1057504740       21.9950733419  SOLV      9395            0.0000000000
     28300      9407  TIP3      OH2            14.7616107304       24.0307256834        9.0220307136  SOLV      9396            0.0000000000
     28301      9407  TIP3      H1             15.1571759406       23.3409354749        8.4494184537  SOLV      9396            0.0000000000
     28302      9407  TIP3      H2             15.4402279732       24.7337623037        9.0040877583  SOLV      9396            0.0000000000
     28303      9408  TIP3      OH2            -1.1274727774       22.3124970973       16.5845901692  SOLV      9397            0.0000000000
     28304      9408  TIP3      H1             -2.0477149766       22.2703755162       16.8932100638  SOLV      9397            0.0000000000
     28305      9408  TIP3      H2             -1.1994661682       22.9229334723       15.8197936966  SOLV      9397            0.0000000000
     28306      9409  TIP3      OH2            10.3995894049       39.3273940976       11.7057758728  SOLV      9398            0.0000000000
     28307      9409  TIP3      H1             10.7833547447       39.1828418959       10.8113241758  SOLV      9398            0.0000000000
     28308      9409  TIP3      H2             11.1842012922       39.7505452032       12.1093336707  SOLV      9398            0.0000000000
     28309      9410  TIP3      OH2             1.0483362569       23.0520078828       24.7119210946  SOLV      9399            0.0000000000
     28310      9410  TIP3      H1              0.5622867659       23.1112975583       25.5497407668  SOLV      9399            0.0000000000
     28311      9410  TIP3      H2              0.4237169871       23.4998973935       24.1067455876  SOLV      9399            0.0000000000
     28312      9411  TIP3      OH2             3.0947529537       37.3365118099       20.6461103583  SOLV      9400            0.0000000000
     28313      9411  TIP3      H1              2.6942308552       38.1563634080       20.2802092918  SOLV      9400            0.0000000000
     28314      9411  TIP3      H2              3.9191955059       37.6960240631       21.0263873293  SOLV      9400            0.0000000000
     28315      9412  TIP3      OH2            17.1258888709       24.3401303901       22.8198246517  SOLV      9401            0.0000000000
     28316      9412  TIP3      H1             16.3475337321       24.3090414222       22.2365305852  SOLV      9401            0.0000000000
     28317      9412  TIP3      H2             17.7430474967       23.7594503725       22.3312110169  SOLV      9401            0.0000000000
     28318      9413  TIP3      OH2             0.0676436432       40.6568049066       21.3302980508  SOLV      9402            0.0000000000
     28319      9413  TIP3      H1             -0.7130943021       40.5593252764       20.7724702995  SOLV      9402            0.0000000000
     28320      9413  TIP3      H2             -0.2460164276       40.3465267449       22.1896186161  SOLV      9402            0.0000000000
     28321      9414  TIP3      OH2             2.2525679674       39.7191402879       19.8180022907  SOLV      9403            0.0000000000
     28322      9414  TIP3      H1              1.5395606611       40.1579374642       20.3260386562  SOLV      9403            0.0000000000
     28323      9414  TIP3      H2              2.1983226771       40.2062046389       18.9642215133  SOLV      9403            0.0000000000
     28324      9415  TIP3      OH2            -0.8989939201       38.1760493015       18.7679254442  SOLV      9404            0.0000000000
     28325      9415  TIP3      H1             -0.5564622778       37.9071703923       19.6517318328  SOLV      9404            0.0000000000
     28326      9415  TIP3      H2             -0.1612707707       37.8348482760       18.2094831802  SOLV      9404            0.0000000000
     28327      9416  TIP3      OH2             1.0334054242       37.0109808589       17.2722997813  SOLV      9405            0.0000000000
     28328      9416  TIP3      H1              1.1911579888       36.1396774860       17.7038254499  SOLV      9405            0.0000000000
     28329      9416  TIP3      H2              1.9503696189       37.3123026249       17.1108944132  SOLV      9405            0.0000000000
     28330      9417  TIP3      OH2             3.7188277313       37.8812814649       17.1961543986  SOLV      9406            0.0000000000
     28331      9417  TIP3      H1              4.0596178642       36.9634629328       17.2546909330  SOLV      9406            0.0000000000
     28332      9417  TIP3      H2              3.7316188175       38.1413414798       18.1252005380  SOLV      9406            0.0000000000
     28333      9418  TIP3      OH2             9.4976777226       24.4724652987       18.2112719999  SOLV      9407            0.0000000000
     28334      9418  TIP3      H1              9.0613626096       23.7342501017       18.6719177233  SOLV      9407            0.0000000000
     28335      9418  TIP3      H2             10.2338105556       24.0256115038       17.7450873444  SOLV      9407            0.0000000000
     28336      9419  TIP3      OH2            14.6654888637       23.1893968951       17.1222145409  SOLV      9408            0.0000000000
     28337      9419  TIP3      H1             15.0419560257       23.7574684766       16.4134859909  SOLV      9408            0.0000000000
     28338      9419  TIP3      H2             13.7464425594       23.5061057701       17.1647831880  SOLV      9408            0.0000000000
     28339      9420  TIP3      OH2            15.6448258542       24.2842081096       14.8238334549  SOLV      9409            0.0000000000
     28340      9420  TIP3      H1             16.3845959744       23.7610702250       14.4480560271  SOLV      9409            0.0000000000
     28341      9420  TIP3      H2             15.9938421607       25.1949695323       14.6829878892  SOLV      9409            0.0000000000
     28342      9421  TIP3      OH2             1.9462563336       21.5523032036       18.2934136490  SOLV      9410            0.0000000000
     28343      9421  TIP3      H1              1.0154724889       21.2425670348       18.3383191125  SOLV      9410            0.0000000000
     28344      9421  TIP3      H2              2.4124009001       20.6905479362       18.2429822544  SOLV      9410            0.0000000000
     28345      9422  TIP3      OH2            -0.1125842257       20.2855451900       14.8303944334  SOLV      9411            0.0000000000
     28346      9422  TIP3      H1              0.1559357413       20.8454881489       14.0809393404  SOLV      9411            0.0000000000
     28347      9422  TIP3      H2             -0.3991999063       20.9524353310       15.4875610341  SOLV      9411            0.0000000000
     28348      9423  TIP3      OH2             6.4494273579       21.8403934385       17.1379255183  SOLV      9412            0.0000000000
     28349      9423  TIP3      H1              6.9731087689       22.3162270810       16.4724694795  SOLV      9412            0.0000000000
     28350      9423  TIP3      H2              6.6814560070       22.3139789886       17.9491649245  SOLV      9412            0.0000000000
     28351      9424  TIP3      OH2            11.7793295266       23.3678738998       16.9610514150  SOLV      9413            0.0000000000
     28352      9424  TIP3      H1             11.8819521140       22.9587876228       16.0920427152  SOLV      9413            0.0000000000
     28353      9424  TIP3      H2             11.6953499842       22.5748748805       17.5419239015  SOLV      9413            0.0000000000
     28354      9425  TIP3      OH2            12.1662142779       22.6248560555       12.5954756795  SOLV      9414            0.0000000000
     28355      9425  TIP3      H1             11.3131176420       23.0589531090       12.7864731555  SOLV      9414            0.0000000000
     28356      9425  TIP3      H2             12.0261315913       21.7537421995       13.0257215766  SOLV      9414            0.0000000000
     28357      9426  TIP3      OH2            -3.0439492330       35.7004074142       12.3885681208  SOLV      9415            0.0000000000
     28358      9426  TIP3      H1             -3.9392616987       35.4451462127       12.1204733482  SOLV      9415            0.0000000000
     28359      9426  TIP3      H2             -3.0834305271       36.6633919319       12.3050720580  SOLV      9415            0.0000000000
     28360      9427  TIP3      OH2             1.0370784710       21.8317435589       12.4220159117  SOLV      9416            0.0000000000
     28361      9427  TIP3      H1              1.5071175571       21.2072609060       11.8350684749  SOLV      9416            0.0000000000
     28362      9427  TIP3      H2              1.7775862059       22.3718334627       12.7643303398  SOLV      9416            0.0000000000
     28363      9428  TIP3      OH2             6.1092813008       23.6432745796       13.4102499687  SOLV      9417            0.0000000000
     28364      9428  TIP3      H1              6.7192721690       23.1773667899       14.0073817030  SOLV      9417            0.0000000000
     28365      9428  TIP3      H2              6.3180616283       24.5711893870       13.6599313392  SOLV      9417            0.0000000000
     28366      9429  TIP3      OH2             4.7728171126       37.7596823020        8.4594991225  SOLV      9418            0.0000000000
     28367      9429  TIP3      H1              5.6327675936       38.0222871924        8.0688223719  SOLV      9418            0.0000000000
     28368      9429  TIP3      H2              4.5021800530       37.0915145748        7.7914670953  SOLV      9418            0.0000000000
     28369      9430  TIP3      OH2            11.7783572116       39.0309256898        9.4091599699  SOLV      9419            0.0000000000
     28370      9430  TIP3      H1             11.7172856094       38.0640737090        9.2394585578  SOLV      9419            0.0000000000
     28371      9430  TIP3      H2             11.5710227972       39.3969999192        8.5329897678  SOLV      9419            0.0000000000
     28372      9431  TIP3      OH2             3.9887062988       24.2874306303       27.1508225712  SOLV      9420            0.0000000000
     28373      9431  TIP3      H1              3.6113303999       23.6070631998       27.7369077953  SOLV      9420            0.0000000000
     28374      9431  TIP3      H2              4.9182454239       24.2954532948       27.4736844187  SOLV      9420            0.0000000000
     28375      9432  TIP3      OH2             6.3900047627       24.3764143902       28.4914897586  SOLV      9421            0.0000000000
     28376      9432  TIP3      H1              7.3472702950       24.5485852974       28.3593364360  SOLV      9421            0.0000000000
     28377      9432  TIP3      H2              6.4000765381       23.5976887560       29.0825594021  SOLV      9421            0.0000000000
     28378      9433  TIP3      OH2            -2.2464068514       36.3733678788        9.0125191036  SOLV      9422            0.0000000000
     28379      9433  TIP3      H1             -2.2847410161       36.2061929629        9.9671326575  SOLV      9422            0.0000000000
     28380      9433  TIP3      H2             -1.3939251948       35.9399548873        8.7723942951  SOLV      9422            0.0000000000
     28381      9434  TIP3      OH2            16.5641389680       29.2203771179       11.3773566590  SOLV      9423            0.0000000000
     28382      9434  TIP3      H1             16.1121149127       30.0708635837       11.4986957208  SOLV      9423            0.0000000000
     28383      9434  TIP3      H2             15.8523627654       28.7124160253       10.9444688344  SOLV      9423            0.0000000000
     28384      9435  TIP3      OH2            17.1338280605       32.1208851842       12.5470587491  SOLV      9424            0.0000000000
     28385      9435  TIP3      H1             17.5116585958       31.3696037279       13.0253001659  SOLV      9424            0.0000000000
     28386      9435  TIP3      H2             17.9074373012       32.5090158165       12.1159431429  SOLV      9424            0.0000000000
     28387      9436  TIP3      OH2            21.9849309385       27.8008495514       13.5842933988  SOLV      9425            0.0000000000
     28388      9436  TIP3      H1             21.8029403187       28.5580489897       13.0125213206  SOLV      9425            0.0000000000
     28389      9436  TIP3      H2             21.5799006113       27.0896382275       13.0576477336  SOLV      9425            0.0000000000
     28390      9437  TIP3      OH2            18.8594546769       29.9347766117       14.2860640594  SOLV      9426            0.0000000000
     28391      9437  TIP3      H1             19.8067155739       30.1121589077       14.4935445693  SOLV      9426            0.0000000000
     28392      9437  TIP3      H2             18.9494579633       29.3340034763       13.5151776810  SOLV      9426            0.0000000000
     28393      9438  TIP3      OH2            15.4533022215       34.4483517576        8.7067812516  SOLV      9427            0.0000000000
     28394      9438  TIP3      H1             15.0805512037       34.7436161062        7.8562429799  SOLV      9427            0.0000000000
     28395      9438  TIP3      H2             15.6609937977       35.3097344451        9.1372112041  SOLV      9427            0.0000000000
     28396      9439  TIP3      OH2            24.6735928707       30.5795741133        4.2170975569  SOLV      9428            0.0000000000
     28397      9439  TIP3      H1             25.2141663665       31.1206418503        4.8041713987  SOLV      9428            0.0000000000
     28398      9439  TIP3      H2             25.3498621323       29.9880621084        3.8205322497  SOLV      9428            0.0000000000
     28399      9440  TIP3      OH2            32.0226624235       24.3660719814        5.5126354431  SOLV      9429            0.0000000000
     28400      9440  TIP3      H1             31.1114803397       24.4942132212        5.8608265024  SOLV      9429            0.0000000000
     28401      9440  TIP3      H2             32.1898234196       25.2457807675        5.1120519865  SOLV      9429            0.0000000000
     28402      9441  TIP3      OH2            19.6900606039       31.7159295876        8.5388194102  SOLV      9430            0.0000000000
     28403      9441  TIP3      H1             18.8456347145       32.1167892573        8.2464698712  SOLV      9430            0.0000000000
     28404      9441  TIP3      H2             19.4383992924       31.2494914390        9.3438352035  SOLV      9430            0.0000000000
     28405      9442  TIP3      OH2            27.4572443123       32.6839203592        2.4095260542  SOLV      9431            0.0000000000
     28406      9442  TIP3      H1             27.4012377667       32.3080030921        1.5124156118  SOLV      9431            0.0000000000
     28407      9442  TIP3      H2             28.4062314390       32.7845299769        2.5386731969  SOLV      9431            0.0000000000
     28408      9443  TIP3      OH2            24.9517794453       26.3094888267        5.6205711303  SOLV      9432            0.0000000000
     28409      9443  TIP3      H1             24.5898940526       26.2744158266        6.5277997872  SOLV      9432            0.0000000000
     28410      9443  TIP3      H2             24.5340766482       25.5068309908        5.2482359864  SOLV      9432            0.0000000000
     28411      9444  TIP3      OH2            21.7352501885       29.6147971326       11.3614242636  SOLV      9433            0.0000000000
     28412      9444  TIP3      H1             20.7796411991       29.4359475738       11.4994641034  SOLV      9433            0.0000000000
     28413      9444  TIP3      H2             21.8429529161       29.1990860639       10.4753949743  SOLV      9433            0.0000000000
     28414      9445  TIP3      OH2            21.4649884092       26.1093934752        5.2841564325  SOLV      9434            0.0000000000
     28415      9445  TIP3      H1             21.3526002714       26.0899939587        6.2548559978  SOLV      9434            0.0000000000
     28416      9445  TIP3      H2             20.6902428335       26.6469004196        5.0254526312  SOLV      9434            0.0000000000
     28417      9446  TIP3      OH2            16.8986544626       26.5078252592       13.9879495313  SOLV      9435            0.0000000000
     28418      9446  TIP3      H1             17.6272153774       26.8343963698       14.5568301073  SOLV      9435            0.0000000000
     28419      9446  TIP3      H2             17.3488919291       26.2240666426       13.1806161680  SOLV      9435            0.0000000000
     28420      9447  TIP3      OH2            16.5188968015       26.3056395242        9.1850854919  SOLV      9436            0.0000000000
     28421      9447  TIP3      H1             16.9907666206       26.6596781461        8.4011351443  SOLV      9436            0.0000000000
     28422      9447  TIP3      H2             15.9134054858       27.0514199264        9.3562791779  SOLV      9436            0.0000000000
     28423      9448  TIP3      OH2            19.2065519732       28.6411091209       11.8783803165  SOLV      9437            0.0000000000
     28424      9448  TIP3      H1             18.2618778750       28.7435912045       11.6118921066  SOLV      9437            0.0000000000
     28425      9448  TIP3      H2             19.4044800948       27.7199626343       11.6284751701  SOLV      9437            0.0000000000
     28426      9449  TIP3      OH2            21.8693606907       28.5601020099        8.8042570344  SOLV      9438            0.0000000000
     28427      9449  TIP3      H1             22.7615627416       28.8264212127        8.5274495599  SOLV      9438            0.0000000000
     28428      9449  TIP3      H2             21.3223794040       28.7901498150        8.0136778484  SOLV      9438            0.0000000000
     28429      9450  TIP3      OH2            20.3933952938       28.8944704498        6.5498443999  SOLV      9439            0.0000000000
     28430      9450  TIP3      H1             19.6456215415       28.4944225200        6.0724051057  SOLV      9439            0.0000000000
     28431      9450  TIP3      H2             20.8916477779       29.2908420159        5.8057897193  SOLV      9439            0.0000000000
     28432      9451  TIP3      OH2            20.8122766579       26.2031013379       11.6188938926  SOLV      9440            0.0000000000
     28433      9451  TIP3      H1             20.4462053999       25.4394985035       12.1206840720  SOLV      9440            0.0000000000
     28434      9451  TIP3      H2             21.1922181136       25.7682035958       10.8456263513  SOLV      9440            0.0000000000
     28435      9452  TIP3      OH2            22.4553443044       34.4673999451        6.5942247234  SOLV      9441            0.0000000000
     28436      9452  TIP3      H1             21.8714022080       33.6964733465        6.4115652739  SOLV      9441            0.0000000000
     28437      9452  TIP3      H2             23.3020697815       34.0131100113        6.7590725342  SOLV      9441            0.0000000000
     28438      9453  TIP3      OH2            27.3312339412       27.5843461638        5.4923065857  SOLV      9442            0.0000000000
     28439      9453  TIP3      H1             26.4308429857       27.1824235962        5.4813438678  SOLV      9442            0.0000000000
     28440      9453  TIP3      H2             27.2528698437       28.2752435850        4.8178989968  SOLV      9442            0.0000000000
     28441      9454  TIP3      OH2            16.4352359432       30.5442961074        6.7578834239  SOLV      9443            0.0000000000
     28442      9454  TIP3      H1             16.8706903745       31.3934052252        6.9807487417  SOLV      9443            0.0000000000
     28443      9454  TIP3      H2             15.6642516570       30.5702538800        7.3682199507  SOLV      9443            0.0000000000
     28444      9455  TIP3      OH2            20.7957769883       35.9591550704        2.8215217376  SOLV      9444            0.0000000000
     28445      9455  TIP3      H1             20.7834636018       35.0112619012        2.5844418985  SOLV      9444            0.0000000000
     28446      9455  TIP3      H2             20.4721411860       35.9488073433        3.7452130750  SOLV      9444            0.0000000000
     28447      9456  TIP3      OH2            20.1574193531       36.1618700728        5.5234212162  SOLV      9445            0.0000000000
     28448      9456  TIP3      H1             20.7472146898       35.4929377134        5.9089602825  SOLV      9445            0.0000000000
     28449      9456  TIP3      H2             20.4451945028       36.9315896104        6.0490367301  SOLV      9445            0.0000000000
     28450      9457  TIP3      OH2            17.4516194875       33.0097752436        7.5278643479  SOLV      9446            0.0000000000
     28451      9457  TIP3      H1             16.7700499888       33.4295682150        8.0971573301  SOLV      9446            0.0000000000
     28452      9457  TIP3      H2             17.5623837555       33.7092921290        6.8541712297  SOLV      9446            0.0000000000
     28453      9458  TIP3      OH2            27.6559780021       27.2711644166        8.2399512404  SOLV      9447            0.0000000000
     28454      9458  TIP3      H1             27.5806500933       27.2338988443        7.2624197339  SOLV      9447            0.0000000000
     28455      9458  TIP3      H2             28.5793096917       27.5379021123        8.3369523093  SOLV      9447            0.0000000000
     28456      9459  TIP3      OH2            24.8046022846       28.7752458270        9.1309906047  SOLV      9448            0.0000000000
     28457      9459  TIP3      H1             25.6850139384       28.9146287772        8.7545341001  SOLV      9448            0.0000000000
     28458      9459  TIP3      H2             24.9996843748       28.7966669646       10.0800441273  SOLV      9448            0.0000000000
     28459      9460  TIP3      OH2            26.1967100387       26.0480521757       10.2151326655  SOLV      9449            0.0000000000
     28460      9460  TIP3      H1             26.4344534081       26.7341377020       10.8681015283  SOLV      9449            0.0000000000
     28461      9460  TIP3      H2             26.7329811596       26.3871800488        9.4596203207  SOLV      9449            0.0000000000
     28462      9461  TIP3      OH2            21.3128996416       25.9331332664        8.0479236762  SOLV      9450            0.0000000000
     28463      9461  TIP3      H1             21.2944299122       26.8455734307        8.4018540589  SOLV      9450            0.0000000000
     28464      9461  TIP3      H2             22.2743443762       25.7594389773        8.1118255536  SOLV      9450            0.0000000000
     28465      9462  TIP3      OH2            17.4800898281       35.0418515332        5.5674955716  SOLV      9451            0.0000000000
     28466      9462  TIP3      H1             18.1749284154       35.7255141033        5.6168097569  SOLV      9451            0.0000000000
     28467      9462  TIP3      H2             17.9019999927       34.4401496194        4.9138590315  SOLV      9451            0.0000000000
     28468      9463  TIP3      OH2            16.8927843731       27.8416387015        6.9463254151  SOLV      9452            0.0000000000
     28469      9463  TIP3      H1             16.9302093709       28.8188593778        6.9445892645  SOLV      9452            0.0000000000
     28470      9463  TIP3      H2             16.0994497731       27.6746766334        6.4253562231  SOLV      9452            0.0000000000
     28471      9464  TIP3      OH2            20.5981362315       25.1052582745       15.7208996519  SOLV      9453            0.0000000000
     28472      9464  TIP3      H1             20.5319604902       24.7737834723       14.8059693674  SOLV      9453            0.0000000000
     28473      9464  TIP3      H2             20.6255507140       24.2814691630       16.2420996381  SOLV      9453            0.0000000000
     28474      9465  TIP3      OH2            15.8418352895       37.0174493113        9.5195099906  SOLV      9454            0.0000000000
     28475      9465  TIP3      H1             15.4488481284       37.6795669020       10.1233609954  SOLV      9454            0.0000000000
     28476      9465  TIP3      H2             15.6297939922       37.4548080821        8.6623634191  SOLV      9454            0.0000000000
     28477      9466  TIP3      OH2            22.3792744091       37.9432312055        1.8357032843  SOLV      9455            0.0000000000
     28478      9466  TIP3      H1             21.8071659620       37.2483043145        2.2308007929  SOLV      9455            0.0000000000
     28479      9466  TIP3      H2             23.1825960835       37.4458821418        1.6373359954  SOLV      9455            0.0000000000
     28480      9467  TIP3      OH2            18.8598389783       33.1953804143        4.1604600109  SOLV      9456            0.0000000000
     28481      9467  TIP3      H1             19.4103107287       32.8215814340        4.8732667230  SOLV      9456            0.0000000000
     28482      9467  TIP3      H2             19.5206442409       33.2309604048        3.4343155047  SOLV      9456            0.0000000000
     28483      9468  TIP3      OH2            23.8706362889       35.1649031605        2.2320321539  SOLV      9457            0.0000000000
     28484      9468  TIP3      H1             23.4281004583       35.1347115530        3.0881832422  SOLV      9457            0.0000000000
     28485      9468  TIP3      H2             24.0695243382       34.2070790358        2.1077175629  SOLV      9457            0.0000000000
     28486      9469  TIP3      OH2            20.9016728455       32.2881657989        6.1981072339  SOLV      9458            0.0000000000
     28487      9469  TIP3      H1             20.5322039835       32.0029047089        7.0686867866  SOLV      9458            0.0000000000
     28488      9469  TIP3      H2             21.2505489012       31.4402066328        5.8520890930  SOLV      9458            0.0000000000
     28489      9470  TIP3      OH2            21.9354462621       30.1812860618        4.6920673622  SOLV      9459            0.0000000000
     28490      9470  TIP3      H1             21.6723512062       30.3060444977        3.7562785485  SOLV      9459            0.0000000000
     28491      9470  TIP3      H2             22.9106258646       30.1809555285        4.6023247327  SOLV      9459            0.0000000000
     28492      9471  TIP3      OH2            14.7728489195       34.6705827768        5.9093049186  SOLV      9460            0.0000000000
     28493      9471  TIP3      H1             15.7239453697       34.8796817219        5.7732206368  SOLV      9460            0.0000000000
     28494      9471  TIP3      H2             14.7188473438       33.7704182582        5.5201811999  SOLV      9460            0.0000000000
     28495      9472  TIP3      OH2            30.3484550257       30.0391330511        2.7056530524  SOLV      9461            0.0000000000
     28496      9472  TIP3      H1             30.6251007756       30.1681683306        1.7925282741  SOLV      9461            0.0000000000
     28497      9472  TIP3      H2             30.3458062022       29.0639849240        2.7650736636  SOLV      9461            0.0000000000
     28498      9473  TIP3      OH2            30.2725038966       27.2617858811        2.6058124074  SOLV      9462            0.0000000000
     28499      9473  TIP3      H1             30.9998108503       26.9402108001        3.1760440219  SOLV      9462            0.0000000000
     28500      9473  TIP3      H2             29.5393499850       26.6643476008        2.8184239887  SOLV      9462            0.0000000000
     28501      9474  TIP3      OH2            18.8695811819       27.1941384533       15.7839380039  SOLV      9463            0.0000000000
     28502      9474  TIP3      H1             19.4681183683       26.4138331408       15.8314890094  SOLV      9463            0.0000000000
     28503      9474  TIP3      H2             19.5162052444       27.9073663420       15.7994737847  SOLV      9463            0.0000000000
     28504      9475  TIP3      OH2            17.0206420325       30.1545699896       16.5195172056  SOLV      9464            0.0000000000
     28505      9475  TIP3      H1             17.5286561025       29.6428855755       15.8641880489  SOLV      9464            0.0000000000
     28506      9475  TIP3      H2             17.0962164057       31.0530779041       16.1566072035  SOLV      9464            0.0000000000
     28507      9476  TIP3      OH2            32.6055046124       26.5363010313        3.9403118760  SOLV      9465            0.0000000000
     28508      9476  TIP3      H1             33.0827374086       25.9396516691        3.3277278822  SOLV      9465            0.0000000000
     28509      9476  TIP3      H2             33.2081942027       27.2904093237        4.0250263145  SOLV      9465            0.0000000000
     28510      9477  TIP3      OH2            16.8343879498       24.8845176572       11.4584309102  SOLV      9466            0.0000000000
     28511      9477  TIP3      H1             15.9153385060       24.8340078874       11.7710276372  SOLV      9466            0.0000000000
     28512      9477  TIP3      H2             16.7535976015       25.4909574954       10.6917395295  SOLV      9466            0.0000000000
     28513      9478  TIP3      OH2            19.9243334957       24.1104638949       13.1371265592  SOLV      9467            0.0000000000
     28514      9478  TIP3      H1             18.9932786714       23.8103537370       13.2230854201  SOLV      9467            0.0000000000
     28515      9478  TIP3      H2             20.3797379389       23.2422747852       13.0955776474  SOLV      9467            0.0000000000
     28516      9479  TIP3      OH2            17.8081547298       22.8521041857        9.6940058048  SOLV      9468            0.0000000000
     28517      9479  TIP3      H1             18.0936704378       23.4132540793        8.9525047038  SOLV      9468            0.0000000000
     28518      9479  TIP3      H2             17.5442202649       23.5179451257       10.3618316385  SOLV      9468            0.0000000000
     28519      9480  TIP3      OH2            24.5708725557       24.4369479676       12.1967867047  SOLV      9469            0.0000000000
     28520      9480  TIP3      H1             25.0457389291       24.8931264913       11.4817880681  SOLV      9469            0.0000000000
     28521      9480  TIP3      H2             24.2136780481       25.1846280607       12.7040596424  SOLV      9469            0.0000000000
     28522      9481  TIP3      OH2            29.6752301646       24.7308300425        6.8629546525  SOLV      9470            0.0000000000
     28523      9481  TIP3      H1             30.0140675860       25.4479784778        7.4385688476  SOLV      9470            0.0000000000
     28524      9481  TIP3      H2             29.5248078281       24.0178100031        7.5142505171  SOLV      9470            0.0000000000
     28525      9482  TIP3      OH2            15.0398695168       38.3228621043        7.2864315235  SOLV      9471            0.0000000000
     28526      9482  TIP3      H1             14.1521041062       37.9718007660        7.1129124737  SOLV      9471            0.0000000000
     28527      9482  TIP3      H2             14.9060039458       39.2475128595        7.0029705032  SOLV      9471            0.0000000000
     28528      9483  TIP3      OH2            18.9973864306       24.4076984834        7.2779649557  SOLV      9472            0.0000000000
     28529      9483  TIP3      H1             19.4658607245       23.7716949337        6.7021789570  SOLV      9472            0.0000000000
     28530      9483  TIP3      H2             19.7414030913       24.9383691131        7.6266089793  SOLV      9472            0.0000000000
     28531      9484  TIP3      OH2            24.0954559908       26.2493127470        8.2811191443  SOLV      9473            0.0000000000
     28532      9484  TIP3      H1             24.7172447963       25.8069175741        8.8814407675  SOLV      9473            0.0000000000
     28533      9484  TIP3      H2             24.2473797781       27.1797008592        8.5485233301  SOLV      9473            0.0000000000
     28534      9485  TIP3      OH2            15.7704269812       38.8094121762        3.9218557187  SOLV      9474            0.0000000000
     28535      9485  TIP3      H1             15.8494766278       38.8536107400        4.8822979480  SOLV      9474            0.0000000000
     28536      9485  TIP3      H2             16.6269648918       38.3880414414        3.6725837460  SOLV      9474            0.0000000000
     28537      9486  TIP3      OH2            -7.3669003488       37.5774917282       12.2883276250  SOLV      9475            0.0000000000
     28538      9486  TIP3      H1             -8.0793082858       37.7731085118       12.9389685690  SOLV      9475            0.0000000000
     28539      9486  TIP3      H2             -7.5507121103       38.2357512747       11.6115197582  SOLV      9475            0.0000000000
     28540      9487  TIP3      OH2            -6.7221617121       38.6797064538       18.6017270881  SOLV      9476            0.0000000000
     28541      9487  TIP3      H1             -6.3936108046       39.3406700202       17.9665154837  SOLV      9476            0.0000000000
     28542      9487  TIP3      H2             -7.6877972892       38.8406266836       18.5970299190  SOLV      9476            0.0000000000
     28543      9488  TIP3      OH2            -5.9605241465       40.1144145695       16.2653840256  SOLV      9477            0.0000000000
     28544      9488  TIP3      H1             -5.3732079991       39.4450717975       15.8565379721  SOLV      9477            0.0000000000
     28545      9488  TIP3      H2             -5.3360305240       40.8305060880       16.4283420202  SOLV      9477            0.0000000000
     28546      9489  TIP3      OH2           -21.5454586156       35.6007090619       16.3537114636  SOLV      9478            0.0000000000
     28547      9489  TIP3      H1            -21.5617483468       36.3305566681       15.7220451326  SOLV      9478            0.0000000000
     28548      9489  TIP3      H2            -22.3291529980       35.8031242615       16.8785517393  SOLV      9478            0.0000000000
     28549      9490  TIP3      OH2            -9.4564878648       38.9174070178       18.5259630148  SOLV      9479            0.0000000000
     28550      9490  TIP3      H1             -9.9378632744       38.5558666129       17.7776758500  SOLV      9479            0.0000000000
     28551      9490  TIP3      H2             -9.7407994520       38.2894420521       19.2295169435  SOLV      9479            0.0000000000
     28552      9491  TIP3      OH2            -9.3793363441       38.1636934001       14.0383091066  SOLV      9480            0.0000000000
     28553      9491  TIP3      H1            -10.2676095456       38.2458867608       13.6781883063  SOLV      9480            0.0000000000
     28554      9491  TIP3      H2             -9.4761354999       37.3696539015       14.6075254108  SOLV      9480            0.0000000000
     28555      9492  TIP3      OH2             4.0736130801       40.6666466516       15.8323384494  SOLV      9481            0.0000000000
     28556      9492  TIP3      H1              4.1513371592       39.7841933282       16.2323084543  SOLV      9481            0.0000000000
     28557      9492  TIP3      H2              3.4818340585       41.0860043390       16.4894915789  SOLV      9481            0.0000000000
     28558      9493  TIP3      OH2            10.6304590031       40.1451768399        7.1246516850  SOLV      9482            0.0000000000
     28559      9493  TIP3      H1              9.9041159484       40.3104172821        7.7676425675  SOLV      9482            0.0000000000
     28560      9493  TIP3      H2             10.4676610696       40.8395236212        6.4774293223  SOLV      9482            0.0000000000
     28561      9494  TIP3      OH2             1.9987146994       41.1891456483       17.6011654268  SOLV      9483            0.0000000000
     28562      9494  TIP3      H1              1.0588118891       41.1697055767       17.3155426280  SOLV      9483            0.0000000000
     28563      9494  TIP3      H2              2.2505287430       42.1313771513       17.5365535485  SOLV      9483            0.0000000000
     28564      9495  TIP3      OH2            -0.6353396948       40.4935769799       17.1089954891  SOLV      9484            0.0000000000
     28565      9495  TIP3      H1             -1.1589230563       40.2884979975       16.3150824774  SOLV      9484            0.0000000000
     28566      9495  TIP3      H2             -0.8576987886       39.7562291352       17.7036871323  SOLV      9484            0.0000000000
     28567      9496  TIP3      OH2             5.5644366491       42.9001663576       14.4065760577  SOLV      9485            0.0000000000
     28568      9496  TIP3      H1              5.3373987851       42.1366145682       14.9792364040  SOLV      9485            0.0000000000
     28569      9496  TIP3      H2              6.4267136046       42.6022389634       14.0673584286  SOLV      9485            0.0000000000
     28570      9497  TIP3      OH2            -1.8293308675       39.8441508391       14.6315139653  SOLV      9486            0.0000000000
     28571      9497  TIP3      H1             -2.6749066881       39.3633904760       14.7597425507  SOLV      9486            0.0000000000
     28572      9497  TIP3      H2             -1.2152125149       39.0814445270       14.5532680753  SOLV      9486            0.0000000000
     28573      9498  TIP3      OH2            -3.9529324879       38.0995993865       11.1429449985  SOLV      9487            0.0000000000
     28574      9498  TIP3      H1             -3.3672115114       38.5149460504       10.4977496235  SOLV      9487            0.0000000000
     28575      9498  TIP3      H2             -4.2648000229       38.9023063747       11.6037600967  SOLV      9487            0.0000000000
     28576      9499  TIP3      OH2             2.8326393587       39.7779469544       13.5322866038  SOLV      9488            0.0000000000
     28577      9499  TIP3      H1              2.6983097822       40.6907981248       13.2218774652  SOLV      9488            0.0000000000
     28578      9499  TIP3      H2              3.2613764357       39.9640305042       14.3931711080  SOLV      9488            0.0000000000
     28579      9500  TIP3      OH2             8.3219095398       41.3440225334       12.8460803973  SOLV      9489            0.0000000000
     28580      9500  TIP3      H1              8.3147416008       40.5300367627       12.3209080780  SOLV      9489            0.0000000000
     28581      9500  TIP3      H2              8.6545363920       41.0065511489       13.6931360573  SOLV      9489            0.0000000000
     28582      9501  TIP3      OH2             8.6191553740       40.7191686459        8.9089326436  SOLV      9490            0.0000000000
     28583      9501  TIP3      H1              7.6941993421       40.9094179830        8.7195314341  SOLV      9490            0.0000000000
     28584      9501  TIP3      H2              8.5332694912       39.9128169619        9.4587433482  SOLV      9490            0.0000000000
     28585      9502  TIP3      OH2            14.2332577040       40.6757838085        6.1127091629  SOLV      9491            0.0000000000
     28586      9502  TIP3      H1             14.9181564952       41.0910911509        5.5677331094  SOLV      9491            0.0000000000
     28587      9502  TIP3      H2             13.7113258289       41.4806581422        6.3349385385  SOLV      9491            0.0000000000
     28588      9503  TIP3      OH2            18.3324203272      -16.6362960405       36.2702375044  SOLV      9492            0.0000000000
     28589      9503  TIP3      H1             17.8446796327      -17.4856511210       36.2738240337  SOLV      9492            0.0000000000
     28590      9503  TIP3      H2             18.2421996546      -16.4042905782       37.2232515754  SOLV      9492            0.0000000000
     28591      9504  TIP3      OH2            19.6221985310      -14.3523931174       35.5187073286  SOLV      9493            0.0000000000
     28592      9504  TIP3      H1             19.0894323270      -15.1585528783       35.7008716732  SOLV      9493            0.0000000000
     28593      9504  TIP3      H2             20.2793874996      -14.3920734361       36.2402887240  SOLV      9493            0.0000000000
     28594      9505  TIP3      OH2            16.8859386171      -11.7073674147       37.3642423276  SOLV      9494            0.0000000000
     28595      9505  TIP3      H1             17.8267538273      -11.6887267174       37.5979746353  SOLV      9494            0.0000000000
     28596      9505  TIP3      H2             16.8971163613      -11.1914575203       36.5365998095  SOLV      9494            0.0000000000
     28597      9506  TIP3      OH2            19.6868262236      -11.8677602404       37.1486419981  SOLV      9495            0.0000000000
     28598      9506  TIP3      H1             20.1357230914      -11.0380025422       36.9149058006  SOLV      9495            0.0000000000
     28599      9506  TIP3      H2             19.4834592846      -12.2632314060       36.2817964604  SOLV      9495            0.0000000000
     28600      9507  TIP3      OH2            13.0830394924      -14.1380427608       37.0992352121  SOLV      9496            0.0000000000
     28601      9507  TIP3      H1             13.1046620552      -14.0481576295       38.0687731289  SOLV      9496            0.0000000000
     28602      9507  TIP3      H2             13.9903874362      -14.4730860177       36.9217203869  SOLV      9496            0.0000000000
     28603      9508  TIP3      OH2             5.9997227162        1.2485540912       36.5037836317  SOLV      9497            0.0000000000
     28604      9508  TIP3      H1              6.0829511873        2.1977357866       36.2563438421  SOLV      9497            0.0000000000
     28605      9508  TIP3      H2              6.9175233059        0.9345230496       36.3390946308  SOLV      9497            0.0000000000
     28606      9509  TIP3      OH2             1.0300837827        3.3401667102       37.7832119372  SOLV      9498            0.0000000000
     28607      9509  TIP3      H1              1.6186412265        2.7299913940       37.2870713841  SOLV      9498            0.0000000000
     28608      9509  TIP3      H2              1.3889030611        3.2533720055       38.6799764094  SOLV      9498            0.0000000000
     28609      9510  TIP3      OH2             3.2696040382       -3.7731391215       37.4066023888  SOLV      9499            0.0000000000
     28610      9510  TIP3      H1              3.2325421457       -4.4789022144       36.7369585961  SOLV      9499            0.0000000000
     28611      9510  TIP3      H2              4.1002878063       -3.9756916722       37.8839047537  SOLV      9499            0.0000000000
     28612      9511  TIP3      OH2             5.1720597274        1.9864371218       39.0788840110  SOLV      9500            0.0000000000
     28613      9511  TIP3      H1              5.3885604449        1.2848070859       39.7025155285  SOLV      9500            0.0000000000
     28614      9511  TIP3      H2              5.4335707272        1.6176373670       38.2141127400  SOLV      9500            0.0000000000
     28615      9512  TIP3      OH2             3.0242568518       -0.4949418688       38.0408313439  SOLV      9501            0.0000000000
     28616      9512  TIP3      H1              3.6366431723       -0.6267266859       38.7771439337  SOLV      9501            0.0000000000
     28617      9512  TIP3      H2              2.2752394748       -1.0482105346       38.3265257172  SOLV      9501            0.0000000000
     28618      9513  TIP3      OH2             6.2558989102        3.9606680667       36.1128360769  SOLV      9502            0.0000000000
     28619      9513  TIP3      H1              6.7212070995        4.7584028408       35.7977185158  SOLV      9502            0.0000000000
     28620      9513  TIP3      H2              5.4626106840        4.3863437469       36.4968618287  SOLV      9502            0.0000000000
     28621      9514  TIP3      OH2            -1.8006340135        1.1098252233       37.1845045349  SOLV      9503            0.0000000000
     28622      9514  TIP3      H1             -1.8450892619        0.5819819024       37.9989582620  SOLV      9503            0.0000000000
     28623      9514  TIP3      H2             -1.0193214191        0.7042822349       36.7571921227  SOLV      9503            0.0000000000
     28624      9515  TIP3      OH2             2.4543235850        1.5473363199       36.2643069139  SOLV      9504            0.0000000000
     28625      9515  TIP3      H1              2.8540107104        0.9370916199       36.9207724473  SOLV      9504            0.0000000000
     28626      9515  TIP3      H2              3.0840549212        1.4841789118       35.5192696512  SOLV      9504            0.0000000000
     28627      9516  TIP3      OH2             6.0391678557       -3.3180117722       36.3285598795  SOLV      9505            0.0000000000
     28628      9516  TIP3      H1              5.6307535735       -3.8328572085       35.6102998027  SOLV      9505            0.0000000000
     28629      9516  TIP3      H2              5.5449295453       -2.4754371382       36.2237499182  SOLV      9505            0.0000000000
     28630      9517  TIP3      OH2             8.0381836714       -3.7199065559       38.0519404463  SOLV      9506            0.0000000000
     28631      9517  TIP3      H1              7.3293812947       -3.5956624253       37.3782231354  SOLV      9506            0.0000000000
     28632      9517  TIP3      H2              7.5641511598       -3.4760155294       38.8597678646  SOLV      9506            0.0000000000
     28633      9518  TIP3      OH2             6.4124459483       -7.5862433288       37.7733010680  SOLV      9507            0.0000000000
     28634      9518  TIP3      H1              6.5706872665       -6.6361569597       37.8437491645  SOLV      9507            0.0000000000
     28635      9518  TIP3      H2              5.7509730256       -7.6440440208       37.0477735248  SOLV      9507            0.0000000000
     28636      9519  TIP3      OH2            -1.7554041720        3.7745290815       38.2345167635  SOLV      9508            0.0000000000
     28637      9519  TIP3      H1             -0.7889473944        3.7706610927       38.1074717499  SOLV      9508            0.0000000000
     28638      9519  TIP3      H2             -1.9769422978        2.9247964749       37.8151798655  SOLV      9508            0.0000000000
     28639      9520  TIP3      OH2             6.2933777788        4.6263381183       39.1323576632  SOLV      9509            0.0000000000
     28640      9520  TIP3      H1              5.8397696973        3.7955707540       39.3603143818  SOLV      9509            0.0000000000
     28641      9520  TIP3      H2              5.6655393791        5.0293195288       38.5094195857  SOLV      9509            0.0000000000
     28642      9521  TIP3      OH2             9.4448170188       -0.2355608870       38.9870753073  SOLV      9510            0.0000000000
     28643      9521  TIP3      H1              8.9158011996        0.1742499467       38.2809694455  SOLV      9510            0.0000000000
     28644      9521  TIP3      H2              9.1832332238        0.2948723748       39.7728872862  SOLV      9510            0.0000000000
     28645      9522  TIP3      OH2            18.9451495066       -1.6727150612       37.2376659072  SOLV      9511            0.0000000000
     28646      9522  TIP3      H1             18.1590902146       -1.1447834151       37.0145107635  SOLV      9511            0.0000000000
     28647      9522  TIP3      H2             19.3914581317       -1.7561289683       36.3766033351  SOLV      9511            0.0000000000
     28648      9523  TIP3      OH2            18.4429341701       -3.7894894057       34.4276756482  SOLV      9512            0.0000000000
     28649      9523  TIP3      H1             19.1085480562       -3.3085886980       34.9476719821  SOLV      9512            0.0000000000
     28650      9523  TIP3      H2             19.0170155234       -4.4298904851       33.9594333211  SOLV      9512            0.0000000000
     28651      9524  TIP3      OH2            22.1662968317       -0.7132679162       37.1456983690  SOLV      9513            0.0000000000
     28652      9524  TIP3      H1             21.4039164578       -0.6827767937       37.7445357142  SOLV      9513            0.0000000000
     28653      9524  TIP3      H2             22.8529906034       -1.0929911888       37.7072718444  SOLV      9513            0.0000000000
     28654      9525  TIP3      OH2            20.7468173063       -2.1972383093       35.2394877571  SOLV      9514            0.0000000000
     28655      9525  TIP3      H1             21.3079895258       -1.5360885446       35.6909872418  SOLV      9514            0.0000000000
     28656      9525  TIP3      H2             20.9975730535       -2.0390949406       34.2942732557  SOLV      9514            0.0000000000
     28657      9526  TIP3      OH2            12.8966457804       -2.8925815317       39.3757548097  SOLV      9515            0.0000000000
     28658      9526  TIP3      H1             12.5724122218       -2.3459563574       38.6303296705  SOLV      9515            0.0000000000
     28659      9526  TIP3      H2             13.3626145999       -3.6183611017       38.9263626056  SOLV      9515            0.0000000000
     28660      9527  TIP3      OH2            23.7432463837        3.8156376445       31.3335379982  SOLV      9516            0.0000000000
     28661      9527  TIP3      H1             23.8971001148        4.7808064544       31.1761002672  SOLV      9516            0.0000000000
     28662      9527  TIP3      H2             24.6500483678        3.4627233389       31.2262728177  SOLV      9516            0.0000000000
     28663      9528  TIP3      OH2            16.7428661905        7.0592384246       35.9185592671  SOLV      9517            0.0000000000
     28664      9528  TIP3      H1             16.4956518153        6.7776704914       35.0168750467  SOLV      9517            0.0000000000
     28665      9528  TIP3      H2             16.9677083600        7.9877461020       35.8041005095  SOLV      9517            0.0000000000
     28666      9529  TIP3      OH2            18.8705937475        5.6929717999       32.4330946202  SOLV      9518            0.0000000000
     28667      9529  TIP3      H1             19.5182277065        5.0531600449       32.0641126691  SOLV      9518            0.0000000000
     28668      9529  TIP3      H2             19.3587268240        6.0383472977       33.2013521761  SOLV      9518            0.0000000000
     28669      9530  TIP3      OH2            19.3614569004        6.3976080233       35.4491020274  SOLV      9519            0.0000000000
     28670      9530  TIP3      H1             18.4577194710        6.4836130578       35.8152130434  SOLV      9519            0.0000000000
     28671      9530  TIP3      H2             19.8695843929        6.2801494455       36.2607001514  SOLV      9519            0.0000000000
     28672      9531  TIP3      OH2            21.5232938651       -1.8763240569       32.7196159183  SOLV      9520            0.0000000000
     28673      9531  TIP3      H1             21.1605151152       -2.0952252904       31.8404575274  SOLV      9520            0.0000000000
     28674      9531  TIP3      H2             22.3464690783       -1.4117491243       32.4729419449  SOLV      9520            0.0000000000
     28675      9532  TIP3      OH2            18.7846389941       -8.1213495721       35.7608107305  SOLV      9521            0.0000000000
     28676      9532  TIP3      H1             18.4225673141       -8.0945961441       36.6723304884  SOLV      9521            0.0000000000
     28677      9532  TIP3      H2             18.2499992381       -8.8484687610       35.3828280450  SOLV      9521            0.0000000000
     28678      9533  TIP3      OH2            20.4395149879       -3.6549575140       38.5855971683  SOLV      9522            0.0000000000
     28679      9533  TIP3      H1             19.8530091235       -3.0031297921       38.1536641870  SOLV      9522            0.0000000000
     28680      9533  TIP3      H2             20.8262655186       -4.1440267380       37.8349755776  SOLV      9522            0.0000000000
     28681      9534  TIP3      OH2            15.2854445900       -8.2435938944       35.3879783686  SOLV      9523            0.0000000000
     28682      9534  TIP3      H1             15.2087084218       -8.2727739340       36.3634691945  SOLV      9523            0.0000000000
     28683      9534  TIP3      H2             14.4274340486       -7.8269462861       35.1638555895  SOLV      9523            0.0000000000
     28684      9535  TIP3      OH2            15.6057222656       -5.3677130439       39.1008276508  SOLV      9524            0.0000000000
     28685      9535  TIP3      H1             16.5287247271       -5.5302840040       38.8322963608  SOLV      9524            0.0000000000
     28686      9535  TIP3      H2             15.1049598327       -5.5391702963       38.2761440090  SOLV      9524            0.0000000000
     28687      9536  TIP3      OH2            13.9755607259       -5.2133972452       36.8069578133  SOLV      9525            0.0000000000
     28688      9536  TIP3      H1             13.3018652279       -5.7959584734       36.4142059965  SOLV      9525            0.0000000000
     28689      9536  TIP3      H2             14.5172907900       -5.0172273359       36.0172695477  SOLV      9525            0.0000000000
     28690      9537  TIP3      OH2            16.5224709281       -0.1458819467       36.8259602754  SOLV      9526            0.0000000000
     28691      9537  TIP3      H1             15.8664998336       -0.8454582125       36.6006467190  SOLV      9526            0.0000000000
     28692      9537  TIP3      H2             16.3621938826       -0.0436576569       37.7717816229  SOLV      9526            0.0000000000
     28693      9538  TIP3      OH2            20.9850210769       -6.7416723708       35.0172007782  SOLV      9527            0.0000000000
     28694      9538  TIP3      H1             20.1874554753       -7.1670788410       35.4157006956  SOLV      9527            0.0000000000
     28695      9538  TIP3      H2             21.2372709390       -6.1066203779       35.7216822260  SOLV      9527            0.0000000000
     28696      9539  TIP3      OH2            21.9710608451       -4.4380101661       36.2917673500  SOLV      9528            0.0000000000
     28697      9539  TIP3      H1             22.9370647176       -4.4100470268       36.2671111235  SOLV      9528            0.0000000000
     28698      9539  TIP3      H2             21.6973153304       -3.6292974580       35.8203857164  SOLV      9528            0.0000000000
     28699      9540  TIP3      OH2            17.9729432934        1.2832959374       34.8946809279  SOLV      9529            0.0000000000
     28700      9540  TIP3      H1             17.5814075837        2.1776172180       35.0212540370  SOLV      9529            0.0000000000
     28701      9540  TIP3      H2             17.5314263560        0.7958300407       35.6158744454  SOLV      9529            0.0000000000
     28702      9541  TIP3      OH2            25.8248432753       -3.6332453034       34.9754401540  SOLV      9530            0.0000000000
     28703      9541  TIP3      H1             25.3031524782       -4.0091316494       34.2342309019  SOLV      9530            0.0000000000
     28704      9541  TIP3      H2             26.1049932890       -2.7974326068       34.5645649823  SOLV      9530            0.0000000000
     28705      9542  TIP3      OH2            22.5674165277        4.3251621327       33.8195862298  SOLV      9531            0.0000000000
     28706      9542  TIP3      H1             23.0534388643        3.6409698280       34.2902827688  SOLV      9531            0.0000000000
     28707      9542  TIP3      H2             22.9344604658        4.2478020195       32.9205593441  SOLV      9531            0.0000000000
     28708      9543  TIP3      OH2            10.4053324958       -3.8057023775       36.7943036792  SOLV      9532            0.0000000000
     28709      9543  TIP3      H1             10.8104540345       -2.9500026177       37.0353512397  SOLV      9532            0.0000000000
     28710      9543  TIP3      H2              9.5730666218       -3.7782336175       37.3264646084  SOLV      9532            0.0000000000
     28711      9544  TIP3      OH2            20.7857486751        1.7491300730       32.9260344798  SOLV      9533            0.0000000000
     28712      9544  TIP3      H1             21.3520248963        1.5494391861       33.7059369648  SOLV      9533            0.0000000000
     28713      9544  TIP3      H2             19.9101441537        1.5450734624       33.2843529743  SOLV      9533            0.0000000000
     28714      9545  TIP3      OH2            24.0469224436        6.4910144087       31.2136029629  SOLV      9534            0.0000000000
     28715      9545  TIP3      H1             24.6243254947        7.2700121065       31.1223642263  SOLV      9534            0.0000000000
     28716      9545  TIP3      H2             23.2058800466        6.9353727826       31.4306294899  SOLV      9534            0.0000000000
     28717      9546  TIP3      OH2            22.4613863881        1.0568751271       34.9870950050  SOLV      9535            0.0000000000
     28718      9546  TIP3      H1             22.2996550068        0.5574778833       35.8086088091  SOLV      9535            0.0000000000
     28719      9546  TIP3      H2             23.4330328593        0.9824471450       34.9144780105  SOLV      9535            0.0000000000
     28720      9547  TIP3      OH2            14.4422333921        1.6188590052       32.9543976869  SOLV      9536            0.0000000000
     28721      9547  TIP3      H1             14.6157768506        0.6928274083       32.7027088372  SOLV      9536            0.0000000000
     28722      9547  TIP3      H2             14.2249726605        1.5238709759       33.9019978686  SOLV      9536            0.0000000000
     28723      9548  TIP3      OH2            13.9121527808        1.7004943535       35.6788376904  SOLV      9537            0.0000000000
     28724      9548  TIP3      H1             14.7603977745        1.4494367871       36.0717929498  SOLV      9537            0.0000000000
     28725      9548  TIP3      H2             13.9414826994        2.6811315106       35.7492338091  SOLV      9537            0.0000000000
     28726      9549  TIP3      OH2            11.4662418903       -1.3605351699       37.5672401969  SOLV      9538            0.0000000000
     28727      9549  TIP3      H1             10.7457073973       -0.9373022605       38.0837242359  SOLV      9538            0.0000000000
     28728      9549  TIP3      H2             11.5537830651       -0.7006499192       36.8517515225  SOLV      9538            0.0000000000
     28729      9550  TIP3      OH2            21.1527030930       -6.6897632655       38.0535750703  SOLV      9539            0.0000000000
     28730      9550  TIP3      H1             21.2894447755       -7.4731022257       37.4943531177  SOLV      9539            0.0000000000
     28731      9550  TIP3      H2             22.0501157236       -6.5156976247       38.3542023116  SOLV      9539            0.0000000000
     28732      9551  TIP3      OH2            16.6171809068        3.6182973113       35.2037030703  SOLV      9540            0.0000000000
     28733      9551  TIP3      H1             15.7653553031        3.9374546076       35.5539171715  SOLV      9540            0.0000000000
     28734      9551  TIP3      H2             16.8770309760        4.3760365994       34.6599416280  SOLV      9540            0.0000000000
     28735      9552  TIP3      OH2            18.4966164806       -5.6441272225       39.3371533877  SOLV      9541            0.0000000000
     28736      9552  TIP3      H1             19.2525491531       -5.1112324190       39.0168456262  SOLV      9541            0.0000000000
     28737      9552  TIP3      H2             18.6781620935       -5.6616520587       40.2833225255  SOLV      9541            0.0000000000
     28738      9553  TIP3      OH2            14.0280081503        4.4429948179       35.8034756246  SOLV      9542            0.0000000000
     28739      9553  TIP3      H1             13.7692612264        5.0324814674       35.0569690192  SOLV      9542            0.0000000000
     28740      9553  TIP3      H2             13.8517722676        5.0314289165       36.5469832622  SOLV      9542            0.0000000000
     28741      9554  TIP3      OH2            15.1169683065       -8.4213402666       38.1358621599  SOLV      9543            0.0000000000
     28742      9554  TIP3      H1             14.9348348161       -8.1541241011       39.0605874369  SOLV      9543            0.0000000000
     28743      9554  TIP3      H2             16.0985912507       -8.4331555420       38.1547714603  SOLV      9543            0.0000000000
     28744      9555  TIP3      OH2            11.2206501799        0.6693676610       35.6805682337  SOLV      9544            0.0000000000
     28745      9555  TIP3      H1             11.9453452196        1.3130980120       35.7918905499  SOLV      9544            0.0000000000
     28746      9555  TIP3      H2             11.6372154285        0.0819794811       35.0111046267  SOLV      9544            0.0000000000
     28747      9556  TIP3      OH2            10.6303021448       -6.5330225347       36.6787582834  SOLV      9545            0.0000000000
     28748      9556  TIP3      H1             10.7393393260       -5.5753748329       36.8327127015  SOLV      9545            0.0000000000
     28749      9556  TIP3      H2              9.9226481749       -6.7453484176       37.2937608229  SOLV      9545            0.0000000000
     28750      9557  TIP3      OH2             9.8311845170        3.3928169727       39.8788826639  SOLV      9546            0.0000000000
     28751      9557  TIP3      H1              9.0245932991        3.9201783412       39.7678079051  SOLV      9546            0.0000000000
     28752      9557  TIP3      H2             10.0743024532        3.3088764930       38.9429397937  SOLV      9546            0.0000000000
     28753      9558  TIP3      OH2            16.0783274148        3.6269682296       32.0404691351  SOLV      9547            0.0000000000
     28754      9558  TIP3      H1             15.5406931018        2.8924935838       32.4171190077  SOLV      9547            0.0000000000
     28755      9558  TIP3      H2             16.8790601760        3.1471560124       31.7677353277  SOLV      9547            0.0000000000
     28756      9559  TIP3      OH2            20.5321865937        3.9795105225       31.1643236089  SOLV      9548            0.0000000000
     28757      9559  TIP3      H1             20.9629467918        3.4495094630       31.8615360638  SOLV      9548            0.0000000000
     28758      9559  TIP3      H2             21.1660198844        3.9267954038       30.4260137599  SOLV      9548            0.0000000000
     28759      9560  TIP3      OH2            12.5760171701       -1.2058582102       34.2959427691  SOLV      9549            0.0000000000
     28760      9560  TIP3      H1             13.1072945088       -1.5820744579       35.0166492446  SOLV      9549            0.0000000000
     28761      9560  TIP3      H2             13.2559384219       -1.1490919927       33.5874392477  SOLV      9549            0.0000000000
     28762      9561  TIP3      OH2            17.6588129386        0.7877387676       32.2623076643  SOLV      9550            0.0000000000
     28763      9561  TIP3      H1             17.7124809142        0.9296055396       33.2325496533  SOLV      9550            0.0000000000
     28764      9561  TIP3      H2             17.7143291553       -0.1919971522       32.2316869327  SOLV      9550            0.0000000000
     28765      9562  TIP3      OH2            14.7282006196       -2.1883189379       36.5034161279  SOLV      9551            0.0000000000
     28766      9562  TIP3      H1             14.4566158099       -2.7871955864       37.2094454484  SOLV      9551            0.0000000000
     28767      9562  TIP3      H2             15.1016657540       -2.8432267182       35.8720502150  SOLV      9551            0.0000000000
     28768      9563  TIP3      OH2            15.6785698718       -4.1286374745       34.8541585043  SOLV      9552            0.0000000000
     28769      9563  TIP3      H1             15.4455526054       -4.0740845403       33.9044808813  SOLV      9552            0.0000000000
     28770      9563  TIP3      H2             16.6571472336       -4.1644504589       34.8024182158  SOLV      9552            0.0000000000
     28771      9564  TIP3      OH2            23.8338205686       -0.8883227317       31.5642622989  SOLV      9553            0.0000000000
     28772      9564  TIP3      H1             23.6505819597       -1.3311299141       30.7105504055  SOLV      9553            0.0000000000
     28773      9564  TIP3      H2             23.4629833677        0.0026967537       31.3571061267  SOLV      9553            0.0000000000
     28774      9565  TIP3      OH2            13.7370135778        6.4158254317       33.9298428670  SOLV      9554            0.0000000000
     28775      9565  TIP3      H1             14.6988078557        6.3492136791       33.7706073537  SOLV      9554            0.0000000000
     28776      9565  TIP3      H2             13.4886443436        6.9765191916       33.1709577418  SOLV      9554            0.0000000000
     28777      9566  TIP3      OH2             8.5195388515        0.2458632497       36.0807664823  SOLV      9555            0.0000000000
     28778      9566  TIP3      H1              9.4655952828        0.4750789227       35.9539908241  SOLV      9555            0.0000000000
     28779      9566  TIP3      H2              8.4799559387       -0.6415373855       35.6637003690  SOLV      9555            0.0000000000
     28780      9567  TIP3      OH2            25.2055786369        0.9098506983       35.0029053868  SOLV      9556            0.0000000000
     28781      9567  TIP3      H1             25.7515904506        1.6102475902       34.5909645052  SOLV      9556            0.0000000000
     28782      9567  TIP3      H2             25.5928654099        0.8476389325       35.8832000411  SOLV      9556            0.0000000000
     28783      9568  TIP3      OH2            25.8303467898       -1.2437810482       33.3646806487  SOLV      9557            0.0000000000
     28784      9568  TIP3      H1             25.1304692887       -1.2445641100       32.6697853471  SOLV      9557            0.0000000000
     28785      9568  TIP3      H2             25.4835950532       -0.5345119145       33.9419234659  SOLV      9557            0.0000000000
     28786      9569  TIP3      OH2            24.4895887792       -4.5953737713       32.7230160927  SOLV      9558            0.0000000000
     28787      9569  TIP3      H1             24.0106639347       -4.3629939297       31.9149470745  SOLV      9558            0.0000000000
     28788      9569  TIP3      H2             24.2451345047       -5.5435090648       32.8047863629  SOLV      9558            0.0000000000
     28789      9570  TIP3      OH2            23.8480704707       -7.2731011217       32.9464829493  SOLV      9559            0.0000000000
     28790      9570  TIP3      H1             24.3503114911       -8.0758696115       33.1265818206  SOLV      9559            0.0000000000
     28791      9570  TIP3      H2             22.9508438815       -7.6465742192       32.8299785980  SOLV      9559            0.0000000000
     28792      9571  TIP3      OH2             8.7896922816        4.1382361445       37.3756690257  SOLV      9560            0.0000000000
     28793      9571  TIP3      H1              7.9002330072        3.7700493449       37.2410565659  SOLV      9560            0.0000000000
     28794      9571  TIP3      H2              8.5708368204        5.0836329387       37.3494510402  SOLV      9560            0.0000000000
     28795      9572  TIP3      OH2            12.9812008302       -9.6345483734       36.7696482857  SOLV      9561            0.0000000000
     28796      9572  TIP3      H1             13.4576866379      -10.4302937279       36.4689018310  SOLV      9561            0.0000000000
     28797      9572  TIP3      H2             13.6337435032       -9.2196377901       37.3670134304  SOLV      9561            0.0000000000
     28798      9573  TIP3      OH2            17.8396720712       -8.0925425419       38.3248836441  SOLV      9562            0.0000000000
     28799      9573  TIP3      H1             18.1127382294       -8.6899244162       39.0552482701  SOLV      9562            0.0000000000
     28800      9573  TIP3      H2             18.2141960344       -7.2348393824       38.6335060987  SOLV      9562            0.0000000000
     28801      9574  TIP3      OH2            16.3761426400        5.9781648952       33.4042449658  SOLV      9563            0.0000000000
     28802      9574  TIP3      H1             17.2842084906        6.1245794589       33.0570940605  SOLV      9563            0.0000000000
     28803      9574  TIP3      H2             16.1430070739        5.2056271342       32.8408450323  SOLV      9563            0.0000000000
     28804      9575  TIP3      OH2             9.4456670694        4.3753642468       33.9781613412  SOLV      9564            0.0000000000
     28805      9575  TIP3      H1              9.3933536065        4.4847729575       34.9408376663  SOLV      9564            0.0000000000
     28806      9575  TIP3      H2             10.3243765378        3.9471130998       33.8625200288  SOLV      9564            0.0000000000
     28807      9576  TIP3      OH2            26.8551258147        2.7626891984       33.7504768775  SOLV      9565            0.0000000000
     28808      9576  TIP3      H1             26.4758248814        2.8326721270       32.8471791133  SOLV      9565            0.0000000000
     28809      9576  TIP3      H2             26.4110265033        3.5320010701       34.1963185655  SOLV      9565            0.0000000000
     28810      9577  TIP3      OH2            28.0304993020       -1.4569435273       31.7635737106  SOLV      9566            0.0000000000
     28811      9577  TIP3      H1             28.3598576035       -0.5499602750       31.9264372699  SOLV      9566            0.0000000000
     28812      9577  TIP3      H2             27.2553218319       -1.4588688880       32.3686393531  SOLV      9566            0.0000000000
     28813      9578  TIP3      OH2            28.7282808535        1.1463272444       32.4286383937  SOLV      9567            0.0000000000
     28814      9578  TIP3      H1             28.0215933672        1.5793991033       32.9472974939  SOLV      9567            0.0000000000
     28815      9578  TIP3      H2             28.7759738293        1.7582440535       31.6644908829  SOLV      9567            0.0000000000
     28816      9579  TIP3      OH2            28.7770594839        3.0144103292       30.3663440049  SOLV      9568            0.0000000000
     28817      9579  TIP3      H1             29.3518793323        3.8036289169       30.4990673623  SOLV      9568            0.0000000000
     28818      9579  TIP3      H2             29.2535313414        2.5963615858       29.6244038545  SOLV      9568            0.0000000000
     28819      9580  TIP3      OH2            28.4410137105       -4.2052873005       31.6738066434  SOLV      9569            0.0000000000
     28820      9580  TIP3      H1             28.6189551343       -3.2476736701       31.6062803029  SOLV      9569            0.0000000000
     28821      9580  TIP3      H2             27.5658730093       -4.1887726248       32.0742798083  SOLV      9569            0.0000000000
     28822      9581  TIP3      OH2            30.4708549163        1.6245211088       28.7149920520  SOLV      9570            0.0000000000
     28823      9581  TIP3      H1             30.9573736817        1.4703320537       29.5511897993  SOLV      9570            0.0000000000
     28824      9581  TIP3      H2             31.2262278151        1.6515192100       28.0884087287  SOLV      9570            0.0000000000
     28825      9582  TIP3      OH2            26.1921256865        2.5564905615       31.0879165041  SOLV      9571            0.0000000000
     28826      9582  TIP3      H1             27.0984097851        2.7829160130       30.7917836445  SOLV      9571            0.0000000000
     28827      9582  TIP3      H2             26.0616467274        1.7058036095       30.6131036735  SOLV      9571            0.0000000000
     28828      9583  TIP3      OH2           -15.3975976971       16.6102182519       38.3971241136  SOLV      9572            0.0000000000
     28829      9583  TIP3      H1            -15.7705788711       17.3547457299       37.8884917391  SOLV      9572            0.0000000000
     28830      9583  TIP3      H2            -14.5106387106       16.4781263841       37.9914352135  SOLV      9572            0.0000000000
     28831      9584  TIP3      OH2           -19.1111293892       16.6895857960       37.1946093466  SOLV      9573            0.0000000000
     28832      9584  TIP3      H1            -18.5378543305       16.7376210330       37.9714207597  SOLV      9573            0.0000000000
     28833      9584  TIP3      H2            -18.4812270103       16.5943475253       36.4515654699  SOLV      9573            0.0000000000
     28834      9585  TIP3      OH2           -15.7277978213       12.5248337712       38.0059537696  SOLV      9574            0.0000000000
     28835      9585  TIP3      H1            -16.0161466815       11.6728901653       37.6267578819  SOLV      9574            0.0000000000
     28836      9585  TIP3      H2            -15.9164688931       13.1251703031       37.2611630362  SOLV      9574            0.0000000000
     28837      9586  TIP3      OH2            -2.7645493696       13.8128712905       38.5683006544  SOLV      9575            0.0000000000
     28838      9586  TIP3      H1             -3.4764367325       14.4519142598       38.4046335636  SOLV      9575            0.0000000000
     28839      9586  TIP3      H2             -2.2104549015       13.8947646231       37.7729075893  SOLV      9575            0.0000000000
     28840      9587  TIP3      OH2            -3.0856456629       11.7592256130       35.9754230777  SOLV      9576            0.0000000000
     28841      9587  TIP3      H1             -2.4271055079       12.2836953398       36.4635705844  SOLV      9576            0.0000000000
     28842      9587  TIP3      H2             -2.4954626441       11.1613518016       35.4696937322  SOLV      9576            0.0000000000
     28843      9588  TIP3      OH2             0.6196220244       14.7969892831       38.6613014221  SOLV      9577            0.0000000000
     28844      9588  TIP3      H1             -0.0300350208       14.9290232193       39.3669752140  SOLV      9577            0.0000000000
     28845      9588  TIP3      H2              1.3266717836       14.3355840782       39.1333451688  SOLV      9577            0.0000000000
     28846      9589  TIP3      OH2            -0.7835915060       13.3468858325       36.7457082180  SOLV      9578            0.0000000000
     28847      9589  TIP3      H1             -0.2151981282       13.9797060702       37.2305933506  SOLV      9578            0.0000000000
     28848      9589  TIP3      H2             -0.5275281712       13.5414876330       35.8087495800  SOLV      9578            0.0000000000
     28849      9590  TIP3      OH2             4.3673586599        5.6652965299       37.2933330359  SOLV      9579            0.0000000000
     28850      9590  TIP3      H1              3.5806759125        5.8628508657       37.8382334016  SOLV      9579            0.0000000000
     28851      9590  TIP3      H2              4.4881389413        6.5070294346       36.8090271910  SOLV      9579            0.0000000000
     28852      9591  TIP3      OH2             2.3364938072       19.3727967187       32.8587636796  SOLV      9580            0.0000000000
     28853      9591  TIP3      H1              2.4245884989       20.3293287116       32.6453554215  SOLV      9580            0.0000000000
     28854      9591  TIP3      H2              3.2596478346       19.0675973791       32.7191861688  SOLV      9580            0.0000000000
     28855      9592  TIP3      OH2            -4.6915894946       22.8686782512       37.1606830687  SOLV      9581            0.0000000000
     28856      9592  TIP3      H1             -4.8582365202       22.2149908042       36.4493243220  SOLV      9581            0.0000000000
     28857      9592  TIP3      H2             -4.6620701750       23.6815254760       36.6399411426  SOLV      9581            0.0000000000
     28858      9593  TIP3      OH2            -2.5805373129       21.5642198658       34.0224513989  SOLV      9582            0.0000000000
     28859      9593  TIP3      H1             -2.0093022089       20.8697614041       33.6210390627  SOLV      9582            0.0000000000
     28860      9593  TIP3      H2             -2.1630684947       21.6675757307       34.9014954743  SOLV      9582            0.0000000000
     28861      9594  TIP3      OH2            -1.9422676866       22.1245757983       36.7107069823  SOLV      9583            0.0000000000
     28862      9594  TIP3      H1             -2.7562520153       22.2075206664       37.2385783247  SOLV      9583            0.0000000000
     28863      9594  TIP3      H2             -1.3330352363       21.7174538365       37.3440677622  SOLV      9583            0.0000000000
     28864      9595  TIP3      OH2            -0.0559442370       13.7557165786       34.2269851325  SOLV      9584            0.0000000000
     28865      9595  TIP3      H1             -0.4297386681       13.5272205010       33.3546852207  SOLV      9584            0.0000000000
     28866      9595  TIP3      H2              0.7992421543       14.1537724853       33.9680942741  SOLV      9584            0.0000000000
     28867      9596  TIP3      OH2            -2.9006398761        7.5376887597       37.4701246022  SOLV      9585            0.0000000000
     28868      9596  TIP3      H1             -3.5984182680        7.6152647709       38.1326695255  SOLV      9585            0.0000000000
     28869      9596  TIP3      H2             -3.2120439956        6.7359882264       36.9910885315  SOLV      9585            0.0000000000
     28870      9597  TIP3      OH2            -1.5292098577       11.8126741652       39.9079306490  SOLV      9586            0.0000000000
     28871      9597  TIP3      H1             -1.9578017144       12.5321774705       39.3956523680  SOLV      9586            0.0000000000
     28872      9597  TIP3      H2             -0.8672336379       11.4779291294       39.2764125675  SOLV      9586            0.0000000000
     28873      9598  TIP3      OH2            -6.3213465262        7.2729560206       37.1371426903  SOLV      9587            0.0000000000
     28874      9598  TIP3      H1             -6.4279025722        7.1715340388       38.1039867826  SOLV      9587            0.0000000000
     28875      9598  TIP3      H2             -7.2437960140        7.4257881025       36.8797069114  SOLV      9587            0.0000000000
     28876      9599  TIP3      OH2            -7.9277661786       10.2581977919       37.9401058912  SOLV      9588            0.0000000000
     28877      9599  TIP3      H1             -8.2068258798        9.7739851126       37.1353869391  SOLV      9588            0.0000000000
     28878      9599  TIP3      H2             -7.0749489133       10.6124927918       37.6288492791  SOLV      9588            0.0000000000
     28879      9600  TIP3      OH2            -5.1143559587       15.5018819969       38.3927053042  SOLV      9589            0.0000000000
     28880      9600  TIP3      H1             -5.7485537121       14.7703260672       38.1935124527  SOLV      9589            0.0000000000
     28881      9600  TIP3      H2             -5.0267873199       15.4092850098       39.3537102632  SOLV      9589            0.0000000000
     28882      9601  TIP3      OH2            -0.4655099174        8.5595364006       36.8098597241  SOLV      9590            0.0000000000
     28883      9601  TIP3      H1             -1.3794825422        8.2931144843       37.0740073667  SOLV      9590            0.0000000000
     28884      9601  TIP3      H2             -0.4239866801        9.4964959919       37.0866411685  SOLV      9590            0.0000000000
     28885      9602  TIP3      OH2             0.2701634618       11.0084196117       37.9167482700  SOLV      9591            0.0000000000
     28886      9602  TIP3      H1              1.2456099077       11.0337651097       38.0799854014  SOLV      9591            0.0000000000
     28887      9602  TIP3      H2              0.1428041454       11.8173958539       37.3862066246  SOLV      9591            0.0000000000
     28888      9603  TIP3      OH2            -3.6591982271       16.8726655336       36.4560504011  SOLV      9592            0.0000000000
     28889      9603  TIP3      H1             -4.0009164689       17.7786683667       36.6143403641  SOLV      9592            0.0000000000
     28890      9603  TIP3      H2             -4.1240772883       16.3842558551       37.1637360533  SOLV      9592            0.0000000000
     28891      9604  TIP3      OH2             4.6704018880       12.0182087591       36.3501161468  SOLV      9593            0.0000000000
     28892      9604  TIP3      H1              4.0452851991       11.5483876102       35.7510460614  SOLV      9593            0.0000000000
     28893      9604  TIP3      H2              4.6436235515       12.8943022036       35.9090950622  SOLV      9593            0.0000000000
     28894      9605  TIP3      OH2             1.5938884195       20.1301313605       35.4537477491  SOLV      9594            0.0000000000
     28895      9605  TIP3      H1              1.4444697045       19.2877366373       35.8960753177  SOLV      9594            0.0000000000
     28896      9605  TIP3      H2              1.8137360639       19.8458029753       34.5467673869  SOLV      9594            0.0000000000
     28897      9606  TIP3      OH2            -0.7485223378       17.4422736785       34.4604865678  SOLV      9595            0.0000000000
     28898      9606  TIP3      H1             -0.1855860972       17.1546679759       35.2160022030  SOLV      9595            0.0000000000
     28899      9606  TIP3      H2             -1.6136594974       17.1128489791       34.7454643893  SOLV      9595            0.0000000000
     28900      9607  TIP3      OH2             2.6338521760       22.0812584135       32.6322042432  SOLV      9596            0.0000000000
     28901      9607  TIP3      H1              3.0071899051       22.8301021655       32.1370199533  SOLV      9596            0.0000000000
     28902      9607  TIP3      H2              1.8432667183       22.5245084485       33.0099175013  SOLV      9596            0.0000000000
     28903      9608  TIP3      OH2             0.9353443547       16.6719371264       36.5059632925  SOLV      9597            0.0000000000
     28904      9608  TIP3      H1              0.7767593983       16.1468142009       37.3110652275  SOLV      9597            0.0000000000
     28905      9608  TIP3      H2              1.9080494868       16.5909056055       36.4253766526  SOLV      9597            0.0000000000
     28906      9609  TIP3      OH2            -7.1685454804       17.2071992369       34.4939651768  SOLV      9598            0.0000000000
     28907      9609  TIP3      H1             -7.0149741069       16.2938012655       34.1849789081  SOLV      9598            0.0000000000
     28908      9609  TIP3      H2             -7.4051056917       17.0537321359       35.4276723003  SOLV      9598            0.0000000000
     28909      9610  TIP3      OH2            -7.6451107152       17.2897759129       37.2634417370  SOLV      9599            0.0000000000
     28910      9610  TIP3      H1             -6.8263655033       16.9055827349       37.6167251317  SOLV      9599            0.0000000000
     28911      9610  TIP3      H2             -7.4852369881       18.2522786956       37.3451234127  SOLV      9599            0.0000000000
     28912      9611  TIP3      OH2           -10.1208513971       14.2166573708       38.9768642075  SOLV      9600            0.0000000000
     28913      9611  TIP3      H1            -10.3706647581       14.4860607396       39.8761420693  SOLV      9600            0.0000000000
     28914      9611  TIP3      H2            -10.2119877555       15.0452458591       38.4791199364  SOLV      9600            0.0000000000
     28915      9612  TIP3      OH2             0.5560167180        8.3314088984       39.4316730845  SOLV      9601            0.0000000000
     28916      9612  TIP3      H1              0.4411550590        8.4710458009       38.4710530497  SOLV      9601            0.0000000000
     28917      9612  TIP3      H2              0.5093425304        9.2395472609       39.7657515814  SOLV      9601            0.0000000000
     28918      9613  TIP3      OH2            -4.9522057559       19.2608665644       36.7727100840  SOLV      9602            0.0000000000
     28919      9613  TIP3      H1             -5.7938904215       19.6117435407       37.1162641740  SOLV      9602            0.0000000000
     28920      9613  TIP3      H2             -4.8948170267       19.7063153116       35.9162633617  SOLV      9602            0.0000000000
     28921      9614  TIP3      OH2            -7.5636313594       20.0930441588       37.3331591535  SOLV      9603            0.0000000000
     28922      9614  TIP3      H1             -7.7724784126       20.6923240696       36.5827368886  SOLV      9603            0.0000000000
     28923      9614  TIP3      H2             -8.2044290813       20.4208072714       37.9924767727  SOLV      9603            0.0000000000
     28924      9615  TIP3      OH2           -10.2663230730       16.3512430756       37.2224355739  SOLV      9604            0.0000000000
     28925      9615  TIP3      H1             -9.4132618048       16.8268576751       37.3042382881  SOLV      9604            0.0000000000
     28926      9615  TIP3      H2             -9.9878648117       15.6764419428       36.5629441626  SOLV      9604            0.0000000000
     28927      9616  TIP3      OH2            -5.4470410052       19.1649190530       33.6247404160  SOLV      9605            0.0000000000
     28928      9616  TIP3      H1             -6.0043852759       18.4092237397       33.9256505260  SOLV      9605            0.0000000000
     28929      9616  TIP3      H2             -4.7099320647       18.6931713645       33.1887111865  SOLV      9605            0.0000000000
     28930      9617  TIP3      OH2            -1.1441814345       19.6255835500       32.7033193632  SOLV      9606            0.0000000000
     28931      9617  TIP3      H1             -0.7158233668       18.9896458950       33.3087614367  SOLV      9606            0.0000000000
     28932      9617  TIP3      H2             -0.5759116448       19.5832120213       31.9087368484  SOLV      9606            0.0000000000
     28933      9618  TIP3      OH2            -9.0776957630       14.4173070857       35.7794068520  SOLV      9607            0.0000000000
     28934      9618  TIP3      H1             -8.6561612230       14.0127890760       36.5562300028  SOLV      9607            0.0000000000
     28935      9618  TIP3      H2             -8.3333358056       14.4163984538       35.1372704570  SOLV      9607            0.0000000000
     28936      9619  TIP3      OH2            -3.9070007900       16.3600267195       33.8057213427  SOLV      9608            0.0000000000
     28937      9619  TIP3      H1             -3.8831411273       16.4846508822       34.7789092847  SOLV      9608            0.0000000000
     28938      9619  TIP3      H2             -3.8616976771       15.3794825073       33.7571023534  SOLV      9608            0.0000000000
     28939      9620  TIP3      OH2            -6.8258798407       13.4270202649       38.0156991647  SOLV      9609            0.0000000000
     28940      9620  TIP3      H1             -7.3829062863       12.9524077213       38.6497852933  SOLV      9609            0.0000000000
     28941      9620  TIP3      H2             -6.4550534453       12.6893711832       37.4848683382  SOLV      9609            0.0000000000
     28942      9621  TIP3      OH2            -5.8526881672       11.4252794003       36.3996326755  SOLV      9610            0.0000000000
     28943      9621  TIP3      H1             -6.0957206082       11.5146148698       35.4552314535  SOLV      9610            0.0000000000
     28944      9621  TIP3      H2             -4.8746065265       11.4018399053       36.3331332326  SOLV      9610            0.0000000000
     28945      9622  TIP3      OH2             2.2615418322       14.6791085795       33.0919468368  SOLV      9611            0.0000000000
     28946      9622  TIP3      H1              2.0698486965       14.2437372953       32.2365758651  SOLV      9611            0.0000000000
     28947      9622  TIP3      H2              1.9159359091       15.5805958720       32.8880435830  SOLV      9611            0.0000000000
     28948      9623  TIP3      OH2            -7.9228590754       22.0889229635       35.4538576994  SOLV      9612            0.0000000000
     28949      9623  TIP3      H1             -6.9636201762       22.0201225595       35.2882800185  SOLV      9612            0.0000000000
     28950      9623  TIP3      H2             -8.1840724182       22.5933534250       34.6568311822  SOLV      9612            0.0000000000
     28951      9624  TIP3      OH2           -12.9986833941       15.8961099704       37.2247243068  SOLV      9613            0.0000000000
     28952      9624  TIP3      H1            -12.0352417075       16.0506186363       37.3281082403  SOLV      9613            0.0000000000
     28953      9624  TIP3      H2            -13.0217084266       14.9836539770       36.8529533273  SOLV      9613            0.0000000000
     28954      9625  TIP3      OH2             3.7027828558       16.5106726150       36.5097852133  SOLV      9614            0.0000000000
     28955      9625  TIP3      H1              4.2761219367       17.1442321124       36.0178408559  SOLV      9614            0.0000000000
     28956      9625  TIP3      H2              4.1129622985       16.5462383364       37.3825611888  SOLV      9614            0.0000000000
     28957      9626  TIP3      OH2             4.2838751914       14.3297980357       34.8898758791  SOLV      9615            0.0000000000
     28958      9626  TIP3      H1              3.5746644745       14.3193377569       34.2074158945  SOLV      9615            0.0000000000
     28959      9626  TIP3      H2              3.9854327795       15.0864795066       35.4338292178  SOLV      9615            0.0000000000
     28960      9627  TIP3      OH2             2.9965899061       11.0508190605       34.4005427737  SOLV      9616            0.0000000000
     28961      9627  TIP3      H1              2.5303353696       11.3331329211       33.6065712848  SOLV      9616            0.0000000000
     28962      9627  TIP3      H2              2.8092879340       10.0871606251       34.3794789538  SOLV      9616            0.0000000000
     28963      9628  TIP3      OH2             2.4412046035        8.3853229436       34.1981800643  SOLV      9617            0.0000000000
     28964      9628  TIP3      H1              3.2006046221        8.0799854378       34.7404619654  SOLV      9617            0.0000000000
     28965      9628  TIP3      H2              1.7359097036        7.7587362394       34.4223949706  SOLV      9617            0.0000000000
     28966      9629  TIP3      OH2             2.9376376908       10.9909930289       38.4268844040  SOLV      9618            0.0000000000
     28967      9629  TIP3      H1              3.3172525105       10.1327689716       38.7133729698  SOLV      9618            0.0000000000
     28968      9629  TIP3      H2              3.6826269213       11.3544962157       37.9171448938  SOLV      9618            0.0000000000
     28969      9630  TIP3      OH2             4.0689002445        8.5592607784       39.1144140796  SOLV      9619            0.0000000000
     28970      9630  TIP3      H1              4.5420699181        8.4524104069       39.9504397760  SOLV      9619            0.0000000000
     28971      9630  TIP3      H2              3.5173819783        7.7535168686       39.1100154246  SOLV      9619            0.0000000000
     28972      9631  TIP3      OH2             4.8242359196        7.7907930203       35.5047917604  SOLV      9620            0.0000000000
     28973      9631  TIP3      H1              5.2880274168        7.0849291126       35.0106549236  SOLV      9620            0.0000000000
     28974      9631  TIP3      H2              5.5263286871        8.4672845145       35.5984937389  SOLV      9620            0.0000000000
     28975      9632  TIP3      OH2             2.3417781621        6.3076320740       39.1581529935  SOLV      9621            0.0000000000
     28976      9632  TIP3      H1              1.6806543139        7.0117750188       39.3442134803  SOLV      9621            0.0000000000
     28977      9632  TIP3      H2              1.9187530965        5.5448845256       39.5767632585  SOLV      9621            0.0000000000
     28978      9633  TIP3      OH2            -5.2066111314       21.5414599985       34.8491876299  SOLV      9622            0.0000000000
     28979      9633  TIP3      H1             -4.3196607926       21.7306552139       34.4689363575  SOLV      9622            0.0000000000
     28980      9633  TIP3      H2             -5.4371919129       20.7635861025       34.2908308991  SOLV      9622            0.0000000000
     28981      9634  TIP3      OH2             1.8536466748       22.9486056020       36.0616912772  SOLV      9623            0.0000000000
     28982      9634  TIP3      H1              1.8666480197       21.9738808435       36.0073674224  SOLV      9623            0.0000000000
     28983      9634  TIP3      H2              1.6074608527       23.1803720234       35.1493828203  SOLV      9623            0.0000000000
     28984      9635  TIP3      OH2           -11.9585299638       19.9738432205       35.5443233001  SOLV      9624            0.0000000000
     28985      9635  TIP3      H1            -11.4509414342       20.3726285470       36.2571846733  SOLV      9624            0.0000000000
     28986      9635  TIP3      H2            -11.2697156665       19.3805739634       35.1615550339  SOLV      9624            0.0000000000
     28987      9636  TIP3      OH2             6.5764785845       13.2468216153       38.0496297698  SOLV      9625            0.0000000000
     28988      9636  TIP3      H1              5.9746433331       13.9507204166       38.2801840041  SOLV      9625            0.0000000000
     28989      9636  TIP3      H2              6.0197045035       12.6198760227       37.5642654221  SOLV      9625            0.0000000000
     28990      9637  TIP3      OH2             5.4659766036       18.1823513502       35.2630855613  SOLV      9626            0.0000000000
     28991      9637  TIP3      H1              5.1615004445       18.4676252405       34.3793555350  SOLV      9626            0.0000000000
     28992      9637  TIP3      H2              5.7150938725       19.0504230805       35.6621714905  SOLV      9626            0.0000000000
     28993      9638  TIP3      OH2            14.7914223173       14.3455094952       30.7239673278  SOLV      9627            0.0000000000
     28994      9638  TIP3      H1             15.2155901562       14.7153733464       31.5093577720  SOLV      9627            0.0000000000
     28995      9638  TIP3      H2             15.5209924069       13.8298761289       30.3143960762  SOLV      9627            0.0000000000
     28996      9639  TIP3      OH2            22.0773991179        8.3655030390       31.9423982945  SOLV      9628            0.0000000000
     28997      9639  TIP3      H1             21.3247803352        8.0537169674       32.4974845459  SOLV      9628            0.0000000000
     28998      9639  TIP3      H2             21.7121449491        9.2232428057       31.6882365281  SOLV      9628            0.0000000000
     28999      9640  TIP3      OH2             9.7856856280       15.4783270263       35.0800592212  SOLV      9629            0.0000000000
     29000      9640  TIP3      H1              8.8736295774       15.7968774789       34.9495012251  SOLV      9629            0.0000000000
     29001      9640  TIP3      H2              9.8020298072       15.1893216585       36.0075011383  SOLV      9629            0.0000000000
     29002      9641  TIP3      OH2            17.2114757234       16.9377370445       28.6345001752  SOLV      9630            0.0000000000
     29003      9641  TIP3      H1             17.2134299309       16.3376196322       27.8630676073  SOLV      9630            0.0000000000
     29004      9641  TIP3      H2             18.1618539855       16.9986567260       28.8329673527  SOLV      9630            0.0000000000
     29005      9642  TIP3      OH2            15.0459760321       10.1122156229       32.1044958092  SOLV      9631            0.0000000000
     29006      9642  TIP3      H1             14.7288129917       10.0937545269       33.0318774631  SOLV      9631            0.0000000000
     29007      9642  TIP3      H2             14.6453719774        9.2807280332       31.7821243265  SOLV      9631            0.0000000000
     29008      9643  TIP3      OH2            11.5416447779        9.8466171295       31.7711018146  SOLV      9632            0.0000000000
     29009      9643  TIP3      H1             11.4813404341        9.7678279278       32.7469841508  SOLV      9632            0.0000000000
     29010      9643  TIP3      H2             10.7764606139       10.4226692096       31.5938489082  SOLV      9632            0.0000000000
     29011      9644  TIP3      OH2             6.6457762356       10.0270413466       35.7050819601  SOLV      9633            0.0000000000
     29012      9644  TIP3      H1              7.1755448391       10.3658470070       34.9559085660  SOLV      9633            0.0000000000
     29013      9644  TIP3      H2              6.1228481265       10.8209227956       35.9171988357  SOLV      9633            0.0000000000
     29014      9645  TIP3      OH2            11.7079043160       12.0376202904       35.2939534339  SOLV      9634            0.0000000000
     29015      9645  TIP3      H1             12.5377579803       12.5422418184       35.2821074227  SOLV      9634            0.0000000000
     29016      9645  TIP3      H2             11.1683060421       12.4785096555       34.6038534394  SOLV      9634            0.0000000000
     29017      9646  TIP3      OH2            10.3207448132       12.7539055122       33.0148474106  SOLV      9635            0.0000000000
     29018      9646  TIP3      H1              9.6438148711       12.2998935392       32.4860834772  SOLV      9635            0.0000000000
     29019      9646  TIP3      H2             10.9444718421       13.0442660637       32.3210397056  SOLV      9635            0.0000000000
     29020      9647  TIP3      OH2            12.7121777749       17.4913042765       33.6000672342  SOLV      9636            0.0000000000
     29021      9647  TIP3      H1             12.1103918114       16.8798095305       33.1264403363  SOLV      9636            0.0000000000
     29022      9647  TIP3      H2             12.0709187648       17.9663897217       34.1513945405  SOLV      9636            0.0000000000
     29023      9648  TIP3      OH2            17.4940236404       11.2515279525       31.8191799283  SOLV      9637            0.0000000000
     29024      9648  TIP3      H1             16.5450275162       11.0006438115       31.9238400968  SOLV      9637            0.0000000000
     29025      9648  TIP3      H2             17.4587966011       12.2126572773       31.7462505213  SOLV      9637            0.0000000000
     29026      9649  TIP3      OH2             6.4936249930       14.2823083526       33.2368458478  SOLV      9638            0.0000000000
     29027      9649  TIP3      H1              6.9858311057       15.0947405672       33.4822699764  SOLV      9638            0.0000000000
     29028      9649  TIP3      H2              5.7671386125       14.3108325176       33.8962140261  SOLV      9638            0.0000000000
     29029      9650  TIP3      OH2            10.9828448976       19.5817033972       29.3872070877  SOLV      9639            0.0000000000
     29030      9650  TIP3      H1             10.8697421171       18.6469194716       29.1155161648  SOLV      9639            0.0000000000
     29031      9650  TIP3      H2             10.5939589163       19.5667942568       30.2864560709  SOLV      9639            0.0000000000
     29032      9651  TIP3      OH2            10.1775004909       19.9289906158       32.0278535103  SOLV      9640            0.0000000000
     29033      9651  TIP3      H1             10.7064125843       19.6702349314       32.8024664862  SOLV      9640            0.0000000000
     29034      9651  TIP3      H2             10.4979540454       20.8465626550       31.9259616603  SOLV      9640            0.0000000000
     29035      9652  TIP3      OH2             7.4816404367       16.7266850346       34.0892233893  SOLV      9641            0.0000000000
     29036      9652  TIP3      H1              6.8186968614       17.1895590554       34.6419356430  SOLV      9641            0.0000000000
     29037      9652  TIP3      H2              7.6477832669       17.4035299544       33.4054372290  SOLV      9641            0.0000000000
     29038      9653  TIP3      OH2            18.3132716260       10.3153693490       34.2832463771  SOLV      9642            0.0000000000
     29039      9653  TIP3      H1             18.0397609153       10.5314586713       33.3684875315  SOLV      9642            0.0000000000
     29040      9653  TIP3      H2             18.7639968766       11.1320101210       34.5394289997  SOLV      9642            0.0000000000
     29041      9654  TIP3      OH2            14.4773810037       12.6353232577       35.6555625592  SOLV      9643            0.0000000000
     29042      9654  TIP3      H1             15.4517186838       12.6710646258       35.5392577336  SOLV      9643            0.0000000000
     29043      9654  TIP3      H2             14.3970346293       12.9399851485       36.5717069598  SOLV      9643            0.0000000000
     29044      9655  TIP3      OH2            11.3809718528        9.5000217477       34.4671846720  SOLV      9644            0.0000000000
     29045      9655  TIP3      H1             11.3362903831       10.3958586730       34.8808547852  SOLV      9644            0.0000000000
     29046      9655  TIP3      H2             12.3260500069        9.3189191664       34.6176108854  SOLV      9644            0.0000000000
     29047      9656  TIP3      OH2             7.5746495665       18.7507940102       32.0957436862  SOLV      9645            0.0000000000
     29048      9656  TIP3      H1              8.2756906317       19.4282765820       32.1618852222  SOLV      9645            0.0000000000
     29049      9656  TIP3      H2              8.0154213420       18.1399337811       31.4630686041  SOLV      9645            0.0000000000
     29050      9657  TIP3      OH2             7.0027256076       11.5661894252       33.4026531288  SOLV      9646            0.0000000000
     29051      9657  TIP3      H1              7.0967719115       12.5376644064       33.4288891768  SOLV      9646            0.0000000000
     29052      9657  TIP3      H2              6.0988656105       11.4608151549       33.0920967690  SOLV      9646            0.0000000000
     29053      9658  TIP3      OH2             5.9558092084       20.7322311986       36.0254008788  SOLV      9647            0.0000000000
     29054      9658  TIP3      H1              5.5706353962       21.3711286934       36.6595588729  SOLV      9647            0.0000000000
     29055      9658  TIP3      H2              5.7060501882       21.1812223823       35.1826936887  SOLV      9647            0.0000000000
     29056      9659  TIP3      OH2            12.3860364131       21.6244713959       28.2726598733  SOLV      9648            0.0000000000
     29057      9659  TIP3      H1             11.8141192990       20.9192265670       28.6536879900  SOLV      9648            0.0000000000
     29058      9659  TIP3      H2             13.0022880121       21.1159110459       27.7146457172  SOLV      9648            0.0000000000
     29059      9660  TIP3      OH2             8.9580435240       16.8993680916       30.6926135636  SOLV      9649            0.0000000000
     29060      9660  TIP3      H1              9.4909533750       16.5410570974       31.4408495466  SOLV      9649            0.0000000000
     29061      9660  TIP3      H2              9.6576070170       16.9335187511       30.0072238346  SOLV      9649            0.0000000000
     29062      9661  TIP3      OH2            13.9621779979       18.9106850975       28.7669814900  SOLV      9650            0.0000000000
     29063      9661  TIP3      H1             13.1912686959       19.0314896876       29.3462654648  SOLV      9650            0.0000000000
     29064      9661  TIP3      H2             13.9862497058       17.9285277409       28.6735921635  SOLV      9650            0.0000000000
     29065      9662  TIP3      OH2            10.6700519809       15.9105874737       32.5755382799  SOLV      9651            0.0000000000
     29066      9662  TIP3      H1             10.3250832469       15.6562686549       33.4668786267  SOLV      9651            0.0000000000
     29067      9662  TIP3      H2             11.0723285870       15.0657588245       32.2890292003  SOLV      9651            0.0000000000
     29068      9663  TIP3      OH2            12.0399900741       13.8779067656       31.2049730786  SOLV      9652            0.0000000000
     29069      9663  TIP3      H1             11.8143554826       14.0512633944       30.2702556117  SOLV      9652            0.0000000000
     29070      9663  TIP3      H2             13.0164089124       13.9057952259       31.1636812730  SOLV      9652            0.0000000000
     29071      9664  TIP3      OH2             4.8901171659       18.3826856615       32.4939079161  SOLV      9653            0.0000000000
     29072      9664  TIP3      H1              5.8332457159       18.6142371883       32.3359474041  SOLV      9653            0.0000000000
     29073      9664  TIP3      H2              4.8423590900       17.4996349310       32.0686230245  SOLV      9653            0.0000000000
     29074      9665  TIP3      OH2            19.9605806804       13.7879673267       29.0112783803  SOLV      9654            0.0000000000
     29075      9665  TIP3      H1             20.8905124530       13.9034612307       28.7486242534  SOLV      9654            0.0000000000
     29076      9665  TIP3      H2             19.9047547228       12.8053353462       29.0170312380  SOLV      9654            0.0000000000
     29077      9666  TIP3      OH2            19.9797465519       11.0911334987       28.9140028225  SOLV      9655            0.0000000000
     29078      9666  TIP3      H1             20.8451394867       10.7830604597       29.2511786620  SOLV      9655            0.0000000000
     29079      9666  TIP3      H2             19.3657470470       10.3791197643       29.1632941253  SOLV      9655            0.0000000000
     29080      9667  TIP3      OH2            22.6413122162       10.5505187810       29.6578827848  SOLV      9656            0.0000000000
     29081      9667  TIP3      H1             22.8426380681        9.6414702318       29.3492602616  SOLV      9656            0.0000000000
     29082      9667  TIP3      H2             23.4164651263       11.0073120789       29.2764380614  SOLV      9656            0.0000000000
     29083      9668  TIP3      OH2             6.7976040444        8.3382674521       37.8276823710  SOLV      9657            0.0000000000
     29084      9668  TIP3      H1              5.9170928724        8.5201116592       38.1872421085  SOLV      9657            0.0000000000
     29085      9668  TIP3      H2              6.9263991657        9.0930465990       37.2177109972  SOLV      9657            0.0000000000
     29086      9669  TIP3      OH2             7.7536078633        6.5106370522       36.0407295096  SOLV      9658            0.0000000000
     29087      9669  TIP3      H1              8.1607578487        7.1420157217       35.4226001697  SOLV      9658            0.0000000000
     29088      9669  TIP3      H2              7.4799594235        7.1083857882       36.7742619506  SOLV      9658            0.0000000000
     29089      9670  TIP3      OH2            19.8245623344        8.1981595259       33.4460933232  SOLV      9659            0.0000000000
     29090      9670  TIP3      H1             19.4194106756        9.0288333521       33.7713988253  SOLV      9659            0.0000000000
     29091      9670  TIP3      H2             19.7140773409        7.6457247828       34.2463227059  SOLV      9659            0.0000000000
     29092      9671  TIP3      OH2             5.1514228872       22.0609966239       33.8035365743  SOLV      9660            0.0000000000
     29093      9671  TIP3      H1              4.2494054949       21.8577528148       33.4958844396  SOLV      9660            0.0000000000
     29094      9671  TIP3      H2              5.1148418078       23.0316845074       33.7839928678  SOLV      9660            0.0000000000
     29095      9672  TIP3      OH2             9.0732762311        8.1574144267       33.7689234189  SOLV      9661            0.0000000000
     29096      9672  TIP3      H1              9.5660991458        7.5124833759       33.2286276164  SOLV      9661            0.0000000000
     29097      9672  TIP3      H2              9.8145562379        8.6833514269       34.1436256028  SOLV      9661            0.0000000000
     29098      9673  TIP3      OH2            14.1821132945        9.9993674008       34.7395050611  SOLV      9662            0.0000000000
     29099      9673  TIP3      H1             14.5319125831        9.5492257744       35.5149260693  SOLV      9662            0.0000000000
     29100      9673  TIP3      H2             14.1780414306       10.9352719167       35.0367580253  SOLV      9662            0.0000000000
     29101      9674  TIP3      OH2             5.7982653875       22.4526907354       30.4043611299  SOLV      9663            0.0000000000
     29102      9674  TIP3      H1              5.7896269255       22.5995831480       31.3615591072  SOLV      9663            0.0000000000
     29103      9674  TIP3      H2              6.6822173717       22.0409323815       30.2624334802  SOLV      9663            0.0000000000
     29104      9675  TIP3      OH2             0.7153341555       23.7649005341       33.6578301510  SOLV      9664            0.0000000000
     29105      9675  TIP3      H1             -0.0614533938       24.0435699087       34.1794687458  SOLV      9664            0.0000000000
     29106      9675  TIP3      H2              0.8409244896       24.5539955723       33.0854396051  SOLV      9664            0.0000000000
     29107      9676  TIP3      OH2            -3.5344910445       30.8841564768       30.4228397730  SOLV      9665            0.0000000000
     29108      9676  TIP3      H1             -3.8679519935       30.8593824913       29.4988357842  SOLV      9665            0.0000000000
     29109      9676  TIP3      H2             -2.9819309558       31.6792671808       30.4004642362  SOLV      9665            0.0000000000
     29110      9677  TIP3      OH2            -6.3807139183       25.1452271581       33.9666181647  SOLV      9666            0.0000000000
     29111      9677  TIP3      H1             -7.0654592605       25.7681047693       34.2574416582  SOLV      9666            0.0000000000
     29112      9677  TIP3      H2             -6.9296061344       24.4615505514       33.5349937788  SOLV      9666            0.0000000000
     29113      9678  TIP3      OH2            -4.1132413473       26.6297886439       33.1985301118  SOLV      9667            0.0000000000
     29114      9678  TIP3      H1             -4.9654867254       26.2280564012       33.4705860805  SOLV      9667            0.0000000000
     29115      9678  TIP3      H2             -4.2582529744       27.5643616473       33.4021934280  SOLV      9667            0.0000000000
     29116      9679  TIP3      OH2             0.7929406158       29.8432970220       32.6874376955  SOLV      9668            0.0000000000
     29117      9679  TIP3      H1              0.2407480124       29.6868004288       31.8825447629  SOLV      9668            0.0000000000
     29118      9679  TIP3      H2              1.1146929361       30.7424932061       32.5609205842  SOLV      9668            0.0000000000
     29119      9680  TIP3      OH2            -1.2420697098       33.1174719520       29.1304117124  SOLV      9669            0.0000000000
     29120      9680  TIP3      H1             -1.5137463835       32.4905949737       28.4305259318  SOLV      9669            0.0000000000
     29121      9680  TIP3      H2             -0.5163166143       33.5795797297       28.6859887494  SOLV      9669            0.0000000000
     29122      9681  TIP3      OH2            -0.6626193493       29.2376280185       30.4803218875  SOLV      9670            0.0000000000
     29123      9681  TIP3      H1             -1.4480999343       29.5335648617       29.9982057129  SOLV      9670            0.0000000000
     29124      9681  TIP3      H2             -0.8217798740       28.2676700559       30.4678392232  SOLV      9670            0.0000000000
     29125      9682  TIP3      OH2            -1.3194290769       26.5763352538       30.6171438186  SOLV      9671            0.0000000000
     29126      9682  TIP3      H1             -0.5703418748       26.2019862372       31.1273092638  SOLV      9671            0.0000000000
     29127      9682  TIP3      H2             -2.0207764644       25.9136411251       30.7255871505  SOLV      9671            0.0000000000
     29128      9683  TIP3      OH2            -0.3360976192       28.9727655031       34.9708820737  SOLV      9672            0.0000000000
     29129      9683  TIP3      H1              0.0305601476       28.0827937318       35.1106541215  SOLV      9672            0.0000000000
     29130      9683  TIP3      H2              0.1041108710       29.2517780602       34.1377944753  SOLV      9672            0.0000000000
     29131      9684  TIP3      OH2             0.6344603039       26.4718670636       35.7572310771  SOLV      9673            0.0000000000
     29132      9684  TIP3      H1              1.2529258727       25.9071599468       36.2415103069  SOLV      9673            0.0000000000
     29133      9684  TIP3      H2             -0.1200693263       25.8522621168       35.6448940024  SOLV      9673            0.0000000000
     29134      9685  TIP3      OH2             0.9842661215       25.7592382090       31.8355163355  SOLV      9674            0.0000000000
     29135      9685  TIP3      H1              1.4357554256       25.1001372175       31.2670939143  SOLV      9674            0.0000000000
     29136      9685  TIP3      H2              1.5943668857       26.5288456266       31.7572584133  SOLV      9674            0.0000000000
     29137      9686  TIP3      OH2            -1.2978252093       24.5186830497       35.4298311449  SOLV      9675            0.0000000000
     29138      9686  TIP3      H1             -2.2225735802       24.6514694479       35.1904090371  SOLV      9675            0.0000000000
     29139      9686  TIP3      H2             -1.3477949918       23.6894246094       35.9528119851  SOLV      9675            0.0000000000
     29140      9687  TIP3      OH2             2.6343353099       27.9322052594       31.4922074807  SOLV      9676            0.0000000000
     29141      9687  TIP3      H1              3.4448705891       28.2894853398       31.1074368591  SOLV      9676            0.0000000000
     29142      9687  TIP3      H2              2.3496479209       28.6522080272       32.0857230256  SOLV      9676            0.0000000000
     29143      9688  TIP3      OH2             3.0687528426       29.9281459753       29.2320964884  SOLV      9677            0.0000000000
     29144      9688  TIP3      H1              3.3790971704       30.2517171734       30.1026172745  SOLV      9677            0.0000000000
     29145      9688  TIP3      H2              2.2952615345       29.3977094621       29.4576741374  SOLV      9677            0.0000000000
     29146      9689  TIP3      OH2             2.9590429766       26.4061794320       34.0184902023  SOLV      9678            0.0000000000
     29147      9689  TIP3      H1              2.1285507000       26.5749612739       34.4892538389  SOLV      9678            0.0000000000
     29148      9689  TIP3      H2              3.1902053924       27.2898092275       33.6816964847  SOLV      9678            0.0000000000
     29149      9690  TIP3      OH2             4.3512867066       24.5574744913       32.5833117656  SOLV      9679            0.0000000000
     29150      9690  TIP3      H1              4.6863680253       25.1279255487       31.8773300336  SOLV      9679            0.0000000000
     29151      9690  TIP3      H2              3.7697898118       25.1851132001       33.0721537860  SOLV      9679            0.0000000000
     29152      9691  TIP3      OH2             5.6347380073       26.4444378707       30.1494693690  SOLV      9680            0.0000000000
     29153      9691  TIP3      H1              5.8359745379       25.6371912640       29.6301269297  SOLV      9680            0.0000000000
     29154      9691  TIP3      H2              6.4803691738       26.9143306857       30.0551458721  SOLV      9680            0.0000000000
     29155      9692  LIT       LIT           -25.4146760101       12.9681086738      -15.1048321674  IONS      1               1.0000000000
     29156      9693  LIT       LIT           -25.0952184912      -15.3919186186      -13.9539109929  IONS      2               1.0000000000
     29157      9694  LIT       LIT            -7.1928386299      -40.2286621649       -3.8933126671  IONS      3               1.0000000000
     29158      9695  LIT       LIT            17.8335815376      -20.3099490768       19.3507420275  IONS      4               1.0000000000
     29159      9696  LIT       LIT            16.5785547217       33.7785045030      -13.3430257671  IONS      5               1.0000000000
     29160      9697  LIT       LIT           -33.9617222002        8.7599335044      -18.7558717836  IONS      6               1.0000000000
     29161      9698  LIT       LIT            36.7630945977        9.8741284427       16.0199907843  IONS      7               1.0000000000
     29162      9699  LIT       LIT           -13.4850023393       30.6812494739      -16.5379327461  IONS      8               1.0000000000
     29163      9700  LIT       LIT             8.2086560930      -32.9434220256       19.0514304752  IONS      9               1.0000000000
     29164      9701  LIT       LIT            37.0380232374       -2.8992574937       -1.5214323757  IONS      10              1.0000000000
     29165      9702  LIT       LIT           -36.9281337573        1.4358063125      -12.4785500091  IONS      11              1.0000000000
     29166      9703  LIT       LIT             6.3415678887       33.8309634847       10.2565723994  IONS      12              1.0000000000
     29167      9704  LIT       LIT            20.2834132329       23.7441572560      -14.9168420880  IONS      13              1.0000000000
     29168      9705  LIT       LIT            -3.7691765263       14.5854583379      -32.2511795568  IONS      14              1.0000000000
     29169      9706  LIT       LIT             7.5316271568       -1.4318125934      -11.4852915076  IONS      15              1.0000000000
     29170      9707  LIT       LIT           -24.7860262111       22.3756995425       24.3223397413  IONS      16              1.0000000000
     29171      9708  LIT       LIT             0.4381936458       35.3791763270       25.4093146477  IONS      17              1.0000000000
     29172      9709  LIT       LIT            14.0703005926      -34.3746046028      -19.4825495140  IONS      18              1.0000000000
     29173      9710  LIT       LIT             7.0226339024       11.0512237116       24.0865398558  IONS      19              1.0000000000
     29174      9711  LIT       LIT            14.1126470221      -16.2567293809      -37.7984799242  IONS      20              1.0000000000
     29175      9712  LIT       LIT           -33.1975686321       11.0963354701        7.3321202008  IONS      21              1.0000000000
     29176      9713  LIT       LIT           -16.1687888133       -9.7621124352      -25.0940934769  IONS      22              1.0000000000
     29177      9714  LIT       LIT             6.4320201503      -13.2981817816       12.3631738237  IONS      23              1.0000000000
     29178      9715  LIT       LIT           -18.2111056971        3.3591772574        4.2677710096  IONS      24              1.0000000000
     29179      9716  LIT       LIT            26.0330366459       12.5617760431       10.1657663286  IONS      25              1.0000000000
     29180      9717  LIT       LIT           -14.4687500701      -20.0022487550        4.0693306559  IONS      26              1.0000000000
     29181      9718  LIT       LIT            31.8353184359      -16.0431688848       23.7591368524  IONS      27              1.0000000000
     29182      9719  LIT       LIT            15.7073634532      -19.3924112674        3.0766862859  IONS      28              1.0000000000
     29183      9720  LIT       LIT             1.5077157773       -8.1717421118        3.1450139577  IONS      29              1.0000000000
     29184      9721  LIT       LIT             0.0534443710      -28.2130893469      -17.3956247385  IONS      30              1.0000000000
     29185      9722  LIT       LIT           -23.9773061656        8.1491172586       22.4947042256  IONS      31              1.0000000000
     29186      9723  CLA       CLA             1.7497238989       33.6604155789       26.1049614825  IONS      32             -1.0000000000
     29187      9724  CLA       CLA            -4.3044760910        8.2165357187      -35.5687632934  IONS      33             -1.0000000000
     29188      9725  CLA       CLA           -19.5462769095      -27.9544376165      -12.3925603251  IONS      34             -1.0000000000
     29189      9726  CLA       CLA           -32.2740708081       16.0592325738      -19.6117066465  IONS      35             -1.0000000000
     29190      9727  CLA       CLA            11.6713330330       30.4682330083       -8.5300643682  IONS      36             -1.0000000000
     29191      9728  CLA       CLA           -17.0006857868      -18.4782002415       -9.5815077307  IONS      37             -1.0000000000
     29192      9729  CLA       CLA            30.4772517105       -5.8532662339       19.0133953204  IONS      38             -1.0000000000
     29193      9730  CLA       CLA           -34.1877822909       14.7923511782        1.9813258083  IONS      39             -1.0000000000
     29194      9731  CLA       CLA            27.7384911788       -0.3704379883      -21.2214478404  IONS      40             -1.0000000000
     29195      9732  CLA       CLA           -29.6170858011        6.2251676054      -17.7935824787  IONS      41             -1.0000000000
     29196      9733  CLA       CLA           -24.4360623173       -2.3147682428       21.5031750950  IONS      42             -1.0000000000
     29197      9734  CLA       CLA           -26.5866376208       23.4466352770       23.2923852318  IONS      43             -1.0000000000
     29198      9735  CLA       CLA            22.9981693755       28.0084042589      -16.0908127809  IONS      44             -1.0000000000
     29199      9736  CLA       CLA             0.2130393225       19.9023563470      -12.2170653759  IONS      45             -1.0000000000
     29200      9737  CLA       CLA           -24.7237065710       -9.0450910550       12.5626056421  IONS      46             -1.0000000000
     29201      9738  CLA       CLA           -29.1196884089        0.2751379172       -9.1873200010  IONS      47             -1.0000000000
     29202      9739  CLA       CLA            -1.2604369438       -8.2743147178        9.8562714522  IONS      48             -1.0000000000
     29203      9740  CLA       CLA           -20.2719164665       29.2700994511      -18.9588404543  IONS      49             -1.0000000000
     29204      9741  CLA       CLA           -39.3077500946       -1.2205480414       -9.7391936876  IONS      50             -1.0000000000
     29205      9742  CLA       CLA             0.6151675945       32.7486549147       13.9651984030  IONS      51             -1.0000000000
     29206      9743  CLA       CLA           -20.4193312387       13.6125645893      -13.5779528777  IONS      52             -1.0000000000
     29207      9744  CLA       CLA           -14.6378252634        2.0252616795      -20.7680551125  IONS      53             -1.0000000000
     29208      9745  CLA       CLA           -20.2738136922       27.1231648750       -2.0110048286  IONS      54             -1.0000000000
     29209      9746  CLA       CLA            24.5815571714       13.8157772288       11.2276931045  IONS      55             -1.0000000000
     29210      9747  CLA       CLA            16.4044640454       -5.4786510239      -17.6337496414  IONS      56             -1.0000000000
     29211      9748  CLA       CLA           -17.8608516745        6.3520095402       20.9255266469  IONS      57             -1.0000000000
     29212      9749  CLA       CLA             4.1631945677      -24.8963972205      -28.5955586310  IONS      58             -1.0000000000
