* GENERATED BY CHARMM-GUI (HTTP://WWW.CHARMM-GUI.ORG) V3.7 ON JUN, 17. 2026. JOB
* GENERATES IONS
*  DATE:     6/17/26     23:42:27      CREATED BY USER: charmm-gui
*
       114  EXT
         1         1  ASP       N              15.6213102016       -0.2572604297       -0.3118068346  PROA      1              92.3600000000
         2         1  ASP       HT1            15.8539663218       -0.5349465890        0.6630580416  PROA      1               0.0000000000
         3         1  ASP       HT2            16.3533191194        0.3873340714       -0.6727230431  PROA      1               0.0000000000
         4         1  ASP       HT3            15.5793820112       -1.1048138015       -0.9130513315  PROA      1               0.0000000000
         5         1  ASP       CA             14.3268246803        0.4171809360       -0.3305972490  PROA      1              93.9000000000
         6         1  ASP       HA             14.3419659190        1.1828855855        0.4307158374  PROA      1               0.0000000000
         7         1  ASP       CB             14.0632546426        1.0346147824       -1.7053660589  PROA      1              87.2500000000
         8         1  ASP       HB1            13.0502772653        1.4901883211       -1.7065983104  PROA      1               0.0000000000
         9         1  ASP       HB2            14.1038282097        0.2330637830       -2.4731822580  PROA      1               0.0000000000
        10         1  ASP       CG             15.0720925607        2.1069388556       -2.0773837155  PROA      1              70.5200000000
        11         1  ASP       OD1            15.8050411566        2.5890766629       -1.1882422810  PROA      1              58.6300000000
        12         1  ASP       OD2            15.1318509527        2.4748009391       -3.2709160452  PROA      1              67.8900000000
        13         1  ASP       C              13.2005118776       -0.5462467006        0.0371522031  PROA      1              95.4900000000
        14         1  ASP       O              13.2450864730       -1.7258551264       -0.3183953565  PROA      1              92.8200000000
        15         2  GLY       N              12.2400241982       -0.5353055085        1.1218322057  PROA      2              91.8000000000
        16         2  GLY       HN             12.3405102222        0.2361897319        1.7222321796  PROA      2               0.0000000000
        17         2  GLY       CA             11.1320666999       -1.3330685726        1.6242974039  PROA      2              91.1700000000
        18         2  GLY       HA1            10.8456827932       -0.9319999337        2.5852440569  PROA      2               0.0000000000
        19         2  GLY       HA2            11.4801394845       -2.3495218494        1.7336515883  PROA      2               0.0000000000
        20         2  GLY       C               9.9249723388       -1.3217732238        0.7061816059  PROA      2              91.8500000000
        21         2  GLY       O               9.8592265264       -0.5263652646       -0.2336575648  PROA      2              88.7000000000
        22         3  ASP       N               9.0780602688       -2.1752767495        0.9918766832  PROA      3              94.1300000000
        23         3  ASP       HN              9.1955033504       -2.8732225834        1.6936277982  PROA      3               0.0000000000
        24         3  ASP       CA              7.8259504238       -2.1467600585        0.2423403370  PROA      3              93.8800000000
        25         3  ASP       HA              8.0648650605       -2.1810629033       -0.8102314978  PROA      3               0.0000000000
        26         3  ASP       CB              6.9429035503       -3.3352480127        0.6260441314  PROA      3              92.1700000000
        27         3  ASP       HB1             6.0120032887       -3.3014478951        0.0211056322  PROA      3               0.0000000000
        28         3  ASP       HB2             6.6815607497       -3.2560399011        1.7026565727  PROA      3               0.0000000000
        29         3  ASP       CG              7.6178756276       -4.6758734825        0.3934865159  PROA      3              87.3200000000
        30         3  ASP       OD1             7.8323861780       -5.0548578663       -0.7778845016  PROA      3              84.4800000000
        31         3  ASP       OD2             7.9351664946       -5.3591045189        1.3901273021  PROA      3              85.1600000000
        32         3  ASP       C               7.0751871665       -0.8371934819        0.4759188313  PROA      3              94.4200000000
        33         3  ASP       O               7.2327975963       -0.2042600326        1.5217755142  PROA      3              93.2400000000
        34         4  GLY       N               6.6592111914       -0.0558283801       -0.5555207287  PROA      4              91.0200000000
        35         4  GLY       HN              6.9613248594       -0.2292763825       -1.4891583188  PROA      4               0.0000000000
        36         4  GLY       CA              5.7588463610        1.0752400963       -0.3958326774  PROA      4              90.7600000000
        37         4  GLY       HA1             5.3650710621        1.3235662907       -1.3702873813  PROA      4               0.0000000000
        38         4  GLY       HA2             6.3335242390        1.9016773739       -0.0046375628  PROA      4               0.0000000000
        39         4  GLY       C               4.6028832965        0.7902281592        0.5445728677  PROA      4              90.6200000000
        40         4  GLY       O               4.4462344634       -0.3364392086        1.0200050769  PROA      4              88.1700000000
        41         5  PRO       N               3.6641576934        1.8185951573        0.9068290742  PROA      5              92.8900000000
        42         5  PRO       CD              3.7740300380        3.1168120039        0.3264791046  PROA      5              88.7800000000
        43         5  PRO       HD1             3.8113900923        3.0344580097       -0.7801605177  PROA      5               0.0000000000
        44         5  PRO       HD2             4.6895382325        3.6218676480        0.7001002358  PROA      5               0.0000000000
        45         5  PRO       CA              2.4589097517        1.6203859558        1.7156204636  PROA      5              93.2400000000
        46         5  PRO       HA              2.7026496068        1.1128388271        2.6351298764  PROA      5               0.0000000000
        47         5  PRO       CB              1.9158275884        3.0401539922        1.8934925715  PROA      5              92.1400000000
        48         5  PRO       HB1             2.2116756785        3.4546623665        2.8807764513  PROA      5               0.0000000000
        49         5  PRO       HB2             0.8076126798        3.0508333807        1.8172140588  PROA      5               0.0000000000
        50         5  PRO       CG              2.5317393450        3.8267991222        0.7817110518  PROA      5              89.6700000000
        51         5  PRO       HG1             1.8147798387        3.9122975645       -0.0626545948  PROA      5               0.0000000000
        52         5  PRO       HG2             2.7891111078        4.8469888829        1.1384559055  PROA      5               0.0000000000
        53         5  PRO       C               1.4294531218        0.7249537727        1.0300686767  PROA      5              93.9300000000
        54         5  PRO       O               1.4718789672        0.5518429527       -0.1915510234  PROA      5              93.0100000000
        55         6  GLY       N               0.7830863612        0.0868538951        1.8062867885  PROA      6              93.7200000000
        56         6  GLY       HN              0.9003024222        0.1252087400        2.7954466969  PROA      6               0.0000000000
        57         6  GLY       CA             -0.2373115374       -0.7999955114        1.2717259792  PROA      6              93.7200000000
        58         6  GLY       HA1            -0.7435009925       -1.2617507393        2.1064977160  PROA      6               0.0000000000
        59         6  GLY       HA2             0.2581741658       -1.5512495186        0.6747328117  PROA      6               0.0000000000
        60         6  GLY       C              -1.2602080670       -0.0821083440        0.4109439484  PROA      6              95.0500000000
        61         6  GLY       O              -1.3942269436        1.1399011386        0.4871657646  PROA      6              94.6100000000
        62         7  ASP       N              -1.9977322005       -0.7627181145       -0.5429504340  PROA      7              94.3900000000
        63         7  ASP       HN             -1.7690905090       -1.7084944910       -0.7502122719  PROA      7               0.0000000000
        64         7  ASP       CA             -3.1215530125       -0.2570119144       -1.3256394025  PROA      7              94.8000000000
        65         7  ASP       HA             -2.7750733944        0.5875283270       -1.9025894317  PROA      7               0.0000000000
        66         7  ASP       CB             -3.6636057613       -1.3472404674       -2.2514198948  PROA      7              93.4500000000
        67         7  ASP       HB1            -4.6733161567       -1.0490837398       -2.6053445391  PROA      7               0.0000000000
        68         7  ASP       HB2            -3.7426191536       -2.2968940496       -1.6808148403  PROA      7               0.0000000000
        69         7  ASP       CG             -2.7816005286       -1.5879545178       -3.4641933754  PROA      7              89.5100000000
        70         7  ASP       OD1            -1.8685235124       -0.7757324275       -3.7248476263  PROA      7              89.3900000000
        71         7  ASP       OD2            -3.0033469507       -2.5985779757       -4.1658134654  PROA      7              89.8300000000
        72         7  ASP       C              -4.2337197416        0.2613683981       -0.4167263053  PROA      7              96.0700000000
        73         7  ASP       O              -4.3885873379       -0.2071229354        0.7132608177  PROA      7              95.8400000000
        74         8  PRO       N              -5.0658558092        1.2063691926       -0.7692614998  PROA      8              94.0000000000
        75         8  PRO       CD             -4.9081449875        1.9372883578       -1.9284299391  PROA      8              89.4200000000
        76         8  PRO       HD1            -5.1570229812        1.3101988070       -2.8101605911  PROA      8               0.0000000000
        77         8  PRO       HD2            -3.8634132087        2.3046847405       -2.0070805062  PROA      8               0.0000000000
        78         8  PRO       CA             -6.2416883498        1.5356840859        0.0392776381  PROA      8              93.9500000000
        79         8  PRO       HA             -5.9480520233        1.7822506774        1.0470087918  PROA      8               0.0000000000
        80         8  PRO       CB             -6.8920547472        2.6841339573       -0.7369700298  PROA      8              92.6200000000
        81         8  PRO       HB1            -7.1153229668        3.5387269210       -0.0632521579  PROA      8               0.0000000000
        82         8  PRO       HB2            -7.8360616110        2.3500995975       -1.2179541150  PROA      8               0.0000000000
        83         8  PRO       CG             -5.8799177789        3.0707453709       -1.7666929888  PROA      8              88.4000000000
        84         8  PRO       HG1            -6.3852240080        3.2760875938       -2.7345751691  PROA      8               0.0000000000
        85         8  PRO       HG2            -5.3413783868        3.9865622685       -1.4418076832  PROA      8               0.0000000000
        86         8  PRO       C              -7.2068621032        0.3610734759        0.1844828059  PROA      8              95.1400000000
        87         8  PRO       O              -7.2811090618       -0.4944544957       -0.7020245426  PROA      8              94.5900000000
        88         9  GLY       N              -7.7858007222        0.2022689933        1.4375870361  PROA      9              94.5000000000
        89         9  GLY       HN             -7.5414865330        0.7797590909        2.2125890590  PROA      9               0.0000000000
        90         9  GLY       CA             -8.7875784358       -0.8223884077        1.6906633548  PROA      9              94.3800000000
        91         9  GLY       HA1            -9.0720479786       -0.7560666930        2.7303588222  PROA      9               0.0000000000
        92         9  GLY       HA2            -8.3360355853       -1.7823579350        1.4885353845  PROA      9               0.0000000000
        93         9  GLY       C             -10.0269682727       -0.6702718660        0.8303782916  PROA      9              95.5400000000
        94         9  GLY       O             -10.2704590363        0.3984413151        0.2657630381  PROA      9              95.3200000000
        95        10  ASP       N             -10.7949466098       -1.5877513034        0.4700218629  PROA      10             95.6200000000
        96        10  ASP       HN            -10.5117463883       -2.5179134264        0.6656240671  PROA      10              0.0000000000
        97        10  ASP       CA            -12.0850258155       -1.5626188704       -0.2127621467  PROA      10             95.3100000000
        98        10  ASP       HA            -11.9510573960       -1.0688016530       -1.1637412878  PROA      10              0.0000000000
        99        10  ASP       CB            -12.6103811990       -2.9838355120       -0.4211319593  PROA      10             92.8500000000
       100        10  ASP       HB1           -13.6781845095       -2.9318577364       -0.7224114367  PROA      10              0.0000000000
       101        10  ASP       HB2           -12.5279677981       -3.5415201537        0.5358794274  PROA      10              0.0000000000
       102        10  ASP       CG            -11.8468052541       -3.7478941579       -1.4893234973  PROA      10             84.1200000000
       103        10  ASP       OD1           -11.1500844242       -3.1146430612       -2.3117796564  PROA      10             82.4000000000
       104        10  ASP       OD2           -11.9455729575       -4.9934961825       -1.5106199084  PROA      10             84.4100000000
       105        10  ASP       C             -13.1030826089       -0.7358703394        0.5690826153  PROA      10             95.5200000000
       106        10  ASP       O             -13.1955205023       -0.8503488512        1.7929763633  PROA      10             94.0900000000
       107        11  GLY       N             -13.6061181198        0.7357191569        0.1128933682  PROA      11             87.7200000000
       108        11  GLY       HN            -13.2076515733        1.1561712906       -0.6959008698  PROA      11              0.0000000000
       109        11  GLY       CA            -14.6103052256        1.5675214302        0.7558025644  PROA      11             88.0300000000
       110        11  GLY       HA1           -14.7938246388        2.4173502295        0.1151819190  PROA      11              0.0000000000
       111        11  GLY       HA2           -14.2094421635        1.8951685687        1.7035574548  PROA      11              0.0000000000
       112        11  GLY       C             -15.9203331397        0.8428786666        0.9995498298  PROA      11             88.2900000000
       113        11  GLY       OT1           -16.0072974635       -0.3603862246        0.6359692914  PROA      11              0.0000000000
       114        11  GLY       OT2           -16.8551573993        1.4809405612        1.5532470598  PROA      11              0.0000000000
