* SET NIONTYPES = 1
* SET NPOSTOT = 31
* SET NNEGTOT = 27
* SET NIONTOT = 58
*  DATE:     6/17/26     23:43:16      CREATED BY USER: charmm-gui
*
        58  EXT
         1         1  LIT       LIT           -17.6368932096       21.7272208684      -16.7416450704  IONS      1               1.0000000000
         2         2  LIT       LIT           -21.9962991648       -8.4162093487      -22.7885230241  IONS      2               1.0000000000
         3         3  LIT       LIT           -11.9352847202      -35.7417492632      -15.3439662237  IONS      3               1.0000000000
         4         4  LIT       LIT             9.2984692758      -24.8213601910       16.5889126330  IONS      4               1.0000000000
         5         5  LIT       LIT            25.0369929058       31.7911971703       -0.1110012562  IONS      5               1.0000000000
         6         6  LIT       LIT           -27.6316589031       17.8419121936      -24.8516197125  IONS      6               1.0000000000
         7         7  LIT       LIT            -3.2042497840      -25.5419822977      -34.5869100284  IONS      7               1.0000000000
         8         8  LIT       LIT            -4.1519452928      -40.1942281040      -11.2103825005  IONS      8               1.0000000000
         9         9  LIT       LIT            -1.1202486056      -36.0089325926       12.5761534272  IONS      9               1.0000000000
        10        10  LIT       LIT            35.1800121633       -9.5671351095        6.9443657297  IONS      10              1.0000000000
        11        11  LIT       LIT           -31.5577236957       11.9670133636      -21.7815680422  IONS      11              1.0000000000
        12        12  LIT       LIT             9.1223500870       29.7073994357       17.0285185152  IONS      12              1.0000000000
        13        13  LIT       LIT            25.3360503920       23.6362847779       -2.8712805298  IONS      13              1.0000000000
        14        14  LIT       LIT           -27.4505203643       -3.5256686585       31.9525202027  IONS      14              1.0000000000
        15        15  LIT       LIT            10.4794725888       -1.8296735728       -9.1630764056  IONS      15              1.0000000000
        16        16  LIT       LIT           -28.2816051982       19.7908609759       21.9740818206  IONS      16              1.0000000000
        17        17  LIT       LIT            -1.4505104814       30.5166110477       32.5835127920  IONS      17              1.0000000000
        18        18  LIT       LIT            14.3657390586      -32.2123990843      -22.2283680782  IONS      18              1.0000000000
        19        19  LIT       LIT             0.6431817919        3.3316334310       26.1386677172  IONS      19              1.0000000000
        20        20  LIT       LIT            21.7645701599      -11.8625805139      -35.9637439129  IONS      20              1.0000000000
        21        21  LIT       LIT           -33.0309070158       14.5981445557        3.0984907237  IONS      21              1.0000000000
        22        22  LIT       LIT            -9.9259019275       -1.2825221866      -29.5846647953  IONS      22              1.0000000000
        23        23  LIT       LIT             2.5047698898      -16.8613196977       10.2053071431  IONS      23              1.0000000000
        24        24  LIT       LIT           -18.3528550743        6.5851939277        2.8809916576  IONS      24              1.0000000000
        25        25  LIT       LIT            23.1174904019        4.2426743330       19.3075457999  IONS      25              1.0000000000
        26        26  LIT       LIT           -16.1542546815      -17.2235212243       -4.2339149754  IONS      26              1.0000000000
        27        27  LIT       LIT            20.3918766229      -25.8217181787       26.3584703202  IONS      27              1.0000000000
        28        28  LIT       LIT            12.3866688841      -21.0304946959        1.3472128794  IONS      28              1.0000000000
        29        29  LIT       LIT            -0.2886381368      -10.6869853922        2.1814311361  IONS      29              1.0000000000
        30        30  LIT       LIT             1.6759105654      -23.7720585708      -22.7282678164  IONS      30              1.0000000000
        31        31  LIT       LIT           -29.8231636039        7.4268068126       16.8739393481  IONS      31              1.0000000000
        32        32  CLA       CLA             0.1220020259       27.1983762052       34.4446031730  IONS      32             -1.0000000000
        33        33  CLA       CLA           -28.3416818451       -8.8547476202       29.0933481173  IONS      33             -1.0000000000
        34        34  CLA       CLA           -18.5712509694      -20.7832210196      -22.0367781298  IONS      34             -1.0000000000
        35        35  CLA       CLA           -23.1383947501       25.4703699416      -22.7085754806  IONS      35             -1.0000000000
        36        36  CLA       CLA            17.9440305037       29.6143186610        1.9855663871  IONS      36             -1.0000000000
        37        37  CLA       CLA           -16.2478658870      -13.6208098391      -18.7837506998  IONS      37             -1.0000000000
        38        38  CLA       CLA            22.8120895389      -15.6164473982       23.9027315083  IONS      38             -1.0000000000
        39        39  CLA       CLA           -31.0484374244       20.3801964848       -1.8835126526  IONS      39             -1.0000000000
        40        40  CLA       CLA            32.9324125163       -0.8991522048      -12.5899927331  IONS      40             -1.0000000000
        41        41  CLA       CLA           -21.2839929405       14.8492451598      -21.9654635724  IONS      41             -1.0000000000
        42        42  CLA       CLA           -29.0018547279       -2.4848812739       14.0277252288  IONS      42             -1.0000000000
        43        43  CLA       CLA           -28.6924486904       24.4207091001       21.4440881070  IONS      43             -1.0000000000
        44        44  CLA       CLA            31.2324271011       26.1216415118       -3.4683097408  IONS      44             -1.0000000000
        45        45  CLA       CLA             5.0785997449       21.5562351367       -6.3981129639  IONS      45             -1.0000000000
        46        46  CLA       CLA           -27.8710154782       -6.2846206323        4.2333864916  IONS      46             -1.0000000000
        47        47  CLA       CLA           -25.2900066267        7.5567724161      -14.8500126395  IONS      47             -1.0000000000
        48        48  CLA       CLA            -5.7476152444       -8.7184674380        6.8308203774  IONS      48             -1.0000000000
        49        49  CLA       CLA            -9.4382479279      -39.1149008756      -14.1825919153  IONS      49             -1.0000000000
        50        50  CLA       CLA           -34.8587120910        8.3608491702      -18.4518978400  IONS      50             -1.0000000000
        51        51  CLA       CLA             0.7931688643       28.4820284684       21.6091578397  IONS      51             -1.0000000000
        52        52  CLA       CLA           -13.2654570221       18.9171282263      -13.4470448127  IONS      52             -1.0000000000
        53        53  CLA       CLA            -7.9267544764        9.1981998818      -22.2131926203  IONS      53             -1.0000000000
        54        54  CLA       CLA           -15.3272257238       30.1143211916        0.1786996661  IONS      54             -1.0000000000
        55        55  CLA       CLA            20.8283564001        7.1554259405       20.4510771558  IONS      55             -1.0000000000
        56        56  CLA       CLA            19.5532210318       -5.6103930192      -14.3695235047  IONS      56             -1.0000000000
        57        57  CLA       CLA           -22.3603006819        6.5164411107       17.2453227306  IONS      57             -1.0000000000
        58        58  CLA       CLA             8.3455040612      -20.1543232349      -32.2417826626  IONS      58             -1.0000000000
