* GENERATED BY CHARMM-GUI (HTTP://WWW.CHARMM-GUI.ORG) V3.7 ON JUN, 17. 2026. JOB
* SOLVATE PROTEIN IN WATER BOX
*  DATE:     6/17/26     23:43:44      CREATED BY USER: charmm-gui
*
     29212  EXT
         1         1  ASP       N              15.6213102016       -0.2572604297       -0.3118068346  PROA      1              92.3600000000
         2         1  ASP       HT1            15.8539663218       -0.5349465890        0.6630580416  PROA      1               0.0000000000
         3         1  ASP       HT2            16.3533191194        0.3873340714       -0.6727230431  PROA      1               0.0000000000
         4         1  ASP       HT3            15.5793820112       -1.1048138015       -0.9130513315  PROA      1               0.0000000000
         5         1  ASP       CA             14.3268246803        0.4171809360       -0.3305972490  PROA      1              93.9000000000
         6         1  ASP       HA             14.3419659190        1.1828855855        0.4307158374  PROA      1               0.0000000000
         7         1  ASP       CB             14.0632546426        1.0346147824       -1.7053660589  PROA      1              87.2500000000
         8         1  ASP       HB1            13.0502772653        1.4901883211       -1.7065983104  PROA      1               0.0000000000
         9         1  ASP       HB2            14.1038282097        0.2330637830       -2.4731822580  PROA      1               0.0000000000
        10         1  ASP       CG             15.0720925607        2.1069388556       -2.0773837155  PROA      1              70.5200000000
        11         1  ASP       OD1            15.8050411566        2.5890766629       -1.1882422810  PROA      1              58.6300000000
        12         1  ASP       OD2            15.1318509527        2.4748009391       -3.2709160452  PROA      1              67.8900000000
        13         1  ASP       C              13.2005118776       -0.5462467006        0.0371522031  PROA      1              95.4900000000
        14         1  ASP       O              13.2450864730       -1.7258551264       -0.3183953565  PROA      1              92.8200000000
        15         2  GLY       N              12.2400241982       -0.5353055085        1.1218322057  PROA      2              91.8000000000
        16         2  GLY       HN             12.3405102222        0.2361897319        1.7222321796  PROA      2               0.0000000000
        17         2  GLY       CA             11.1320666999       -1.3330685726        1.6242974039  PROA      2              91.1700000000
        18         2  GLY       HA1            10.8456827932       -0.9319999337        2.5852440569  PROA      2               0.0000000000
        19         2  GLY       HA2            11.4801394845       -2.3495218494        1.7336515883  PROA      2               0.0000000000
        20         2  GLY       C               9.9249723388       -1.3217732238        0.7061816059  PROA      2              91.8500000000
        21         2  GLY       O               9.8592265264       -0.5263652646       -0.2336575648  PROA      2              88.7000000000
        22         3  ASP       N               9.0780602688       -2.1752767495        0.9918766832  PROA      3              94.1300000000
        23         3  ASP       HN              9.1955033504       -2.8732225834        1.6936277982  PROA      3               0.0000000000
        24         3  ASP       CA              7.8259504238       -2.1467600585        0.2423403370  PROA      3              93.8800000000
        25         3  ASP       HA              8.0648650605       -2.1810629033       -0.8102314978  PROA      3               0.0000000000
        26         3  ASP       CB              6.9429035503       -3.3352480127        0.6260441314  PROA      3              92.1700000000
        27         3  ASP       HB1             6.0120032887       -3.3014478951        0.0211056322  PROA      3               0.0000000000
        28         3  ASP       HB2             6.6815607497       -3.2560399011        1.7026565727  PROA      3               0.0000000000
        29         3  ASP       CG              7.6178756276       -4.6758734825        0.3934865159  PROA      3              87.3200000000
        30         3  ASP       OD1             7.8323861780       -5.0548578663       -0.7778845016  PROA      3              84.4800000000
        31         3  ASP       OD2             7.9351664946       -5.3591045189        1.3901273021  PROA      3              85.1600000000
        32         3  ASP       C               7.0751871665       -0.8371934819        0.4759188313  PROA      3              94.4200000000
        33         3  ASP       O               7.2327975963       -0.2042600326        1.5217755142  PROA      3              93.2400000000
        34         4  GLY       N               6.6592111914       -0.0558283801       -0.5555207287  PROA      4              91.0200000000
        35         4  GLY       HN              6.9613248594       -0.2292763825       -1.4891583188  PROA      4               0.0000000000
        36         4  GLY       CA              5.7588463610        1.0752400963       -0.3958326774  PROA      4              90.7600000000
        37         4  GLY       HA1             5.3650710621        1.3235662907       -1.3702873813  PROA      4               0.0000000000
        38         4  GLY       HA2             6.3335242390        1.9016773739       -0.0046375628  PROA      4               0.0000000000
        39         4  GLY       C               4.6028832965        0.7902281592        0.5445728677  PROA      4              90.6200000000
        40         4  GLY       O               4.4462344634       -0.3364392086        1.0200050769  PROA      4              88.1700000000
        41         5  PRO       N               3.6641576934        1.8185951573        0.9068290742  PROA      5              92.8900000000
        42         5  PRO       CD              3.7740300380        3.1168120039        0.3264791046  PROA      5              88.7800000000
        43         5  PRO       HD1             3.8113900923        3.0344580097       -0.7801605177  PROA      5               0.0000000000
        44         5  PRO       HD2             4.6895382325        3.6218676480        0.7001002358  PROA      5               0.0000000000
        45         5  PRO       CA              2.4589097517        1.6203859558        1.7156204636  PROA      5              93.2400000000
        46         5  PRO       HA              2.7026496068        1.1128388271        2.6351298764  PROA      5               0.0000000000
        47         5  PRO       CB              1.9158275884        3.0401539922        1.8934925715  PROA      5              92.1400000000
        48         5  PRO       HB1             2.2116756785        3.4546623665        2.8807764513  PROA      5               0.0000000000
        49         5  PRO       HB2             0.8076126798        3.0508333807        1.8172140588  PROA      5               0.0000000000
        50         5  PRO       CG              2.5317393450        3.8267991222        0.7817110518  PROA      5              89.6700000000
        51         5  PRO       HG1             1.8147798387        3.9122975645       -0.0626545948  PROA      5               0.0000000000
        52         5  PRO       HG2             2.7891111078        4.8469888829        1.1384559055  PROA      5               0.0000000000
        53         5  PRO       C               1.4294531218        0.7249537727        1.0300686767  PROA      5              93.9300000000
        54         5  PRO       O               1.4718789672        0.5518429527       -0.1915510234  PROA      5              93.0100000000
        55         6  GLY       N               0.7830863612        0.0868538951        1.8062867885  PROA      6              93.7200000000
        56         6  GLY       HN              0.9003024222        0.1252087400        2.7954466969  PROA      6               0.0000000000
        57         6  GLY       CA             -0.2373115374       -0.7999955114        1.2717259792  PROA      6              93.7200000000
        58         6  GLY       HA1            -0.7435009925       -1.2617507393        2.1064977160  PROA      6               0.0000000000
        59         6  GLY       HA2             0.2581741658       -1.5512495186        0.6747328117  PROA      6               0.0000000000
        60         6  GLY       C              -1.2602080670       -0.0821083440        0.4109439484  PROA      6              95.0500000000
        61         6  GLY       O              -1.3942269436        1.1399011386        0.4871657646  PROA      6              94.6100000000
        62         7  ASP       N              -1.9977322005       -0.7627181145       -0.5429504340  PROA      7              94.3900000000
        63         7  ASP       HN             -1.7690905090       -1.7084944910       -0.7502122719  PROA      7               0.0000000000
        64         7  ASP       CA             -3.1215530125       -0.2570119144       -1.3256394025  PROA      7              94.8000000000
        65         7  ASP       HA             -2.7750733944        0.5875283270       -1.9025894317  PROA      7               0.0000000000
        66         7  ASP       CB             -3.6636057613       -1.3472404674       -2.2514198948  PROA      7              93.4500000000
        67         7  ASP       HB1            -4.6733161567       -1.0490837398       -2.6053445391  PROA      7               0.0000000000
        68         7  ASP       HB2            -3.7426191536       -2.2968940496       -1.6808148403  PROA      7               0.0000000000
        69         7  ASP       CG             -2.7816005286       -1.5879545178       -3.4641933754  PROA      7              89.5100000000
        70         7  ASP       OD1            -1.8685235124       -0.7757324275       -3.7248476263  PROA      7              89.3900000000
        71         7  ASP       OD2            -3.0033469507       -2.5985779757       -4.1658134654  PROA      7              89.8300000000
        72         7  ASP       C              -4.2337197416        0.2613683981       -0.4167263053  PROA      7              96.0700000000
        73         7  ASP       O              -4.3885873379       -0.2071229354        0.7132608177  PROA      7              95.8400000000
        74         8  PRO       N              -5.0658558092        1.2063691926       -0.7692614998  PROA      8              94.0000000000
        75         8  PRO       CD             -4.9081449875        1.9372883578       -1.9284299391  PROA      8              89.4200000000
        76         8  PRO       HD1            -5.1570229812        1.3101988070       -2.8101605911  PROA      8               0.0000000000
        77         8  PRO       HD2            -3.8634132087        2.3046847405       -2.0070805062  PROA      8               0.0000000000
        78         8  PRO       CA             -6.2416883498        1.5356840859        0.0392776381  PROA      8              93.9500000000
        79         8  PRO       HA             -5.9480520233        1.7822506774        1.0470087918  PROA      8               0.0000000000
        80         8  PRO       CB             -6.8920547472        2.6841339573       -0.7369700298  PROA      8              92.6200000000
        81         8  PRO       HB1            -7.1153229668        3.5387269210       -0.0632521579  PROA      8               0.0000000000
        82         8  PRO       HB2            -7.8360616110        2.3500995975       -1.2179541150  PROA      8               0.0000000000
        83         8  PRO       CG             -5.8799177789        3.0707453709       -1.7666929888  PROA      8              88.4000000000
        84         8  PRO       HG1            -6.3852240080        3.2760875938       -2.7345751691  PROA      8               0.0000000000
        85         8  PRO       HG2            -5.3413783868        3.9865622685       -1.4418076832  PROA      8               0.0000000000
        86         8  PRO       C              -7.2068621032        0.3610734759        0.1844828059  PROA      8              95.1400000000
        87         8  PRO       O              -7.2811090618       -0.4944544957       -0.7020245426  PROA      8              94.5900000000
        88         9  GLY       N              -7.7858007222        0.2022689933        1.4375870361  PROA      9              94.5000000000
        89         9  GLY       HN             -7.5414865330        0.7797590909        2.2125890590  PROA      9               0.0000000000
        90         9  GLY       CA             -8.7875784358       -0.8223884077        1.6906633548  PROA      9              94.3800000000
        91         9  GLY       HA1            -9.0720479786       -0.7560666930        2.7303588222  PROA      9               0.0000000000
        92         9  GLY       HA2            -8.3360355853       -1.7823579350        1.4885353845  PROA      9               0.0000000000
        93         9  GLY       C             -10.0269682727       -0.6702718660        0.8303782916  PROA      9              95.5400000000
        94         9  GLY       O             -10.2704590363        0.3984413151        0.2657630381  PROA      9              95.3200000000
        95        10  ASP       N             -10.7949466098       -1.5877513034        0.4700218629  PROA      10             95.6200000000
        96        10  ASP       HN            -10.5117463883       -2.5179134264        0.6656240671  PROA      10              0.0000000000
        97        10  ASP       CA            -12.0850258155       -1.5626188704       -0.2127621467  PROA      10             95.3100000000
        98        10  ASP       HA            -11.9510573960       -1.0688016530       -1.1637412878  PROA      10              0.0000000000
        99        10  ASP       CB            -12.6103811990       -2.9838355120       -0.4211319593  PROA      10             92.8500000000
       100        10  ASP       HB1           -13.6781845095       -2.9318577364       -0.7224114367  PROA      10              0.0000000000
       101        10  ASP       HB2           -12.5279677981       -3.5415201537        0.5358794274  PROA      10              0.0000000000
       102        10  ASP       CG            -11.8468052541       -3.7478941579       -1.4893234973  PROA      10             84.1200000000
       103        10  ASP       OD1           -11.1500844242       -3.1146430612       -2.3117796564  PROA      10             82.4000000000
       104        10  ASP       OD2           -11.9455729575       -4.9934961825       -1.5106199084  PROA      10             84.4100000000
       105        10  ASP       C             -13.1030826089       -0.7358703394        0.5690826153  PROA      10             95.5200000000
       106        10  ASP       O             -13.1955205023       -0.8503488512        1.7929763633  PROA      10             94.0900000000
       107        11  GLY       N             -13.6061181198        0.7357191569        0.1128933682  PROA      11             87.7200000000
       108        11  GLY       HN            -13.2076515733        1.1561712906       -0.6959008698  PROA      11              0.0000000000
       109        11  GLY       CA            -14.6103052256        1.5675214302        0.7558025644  PROA      11             88.0300000000
       110        11  GLY       HA1           -14.7938246388        2.4173502295        0.1151819190  PROA      11              0.0000000000
       111        11  GLY       HA2           -14.2094421635        1.8951685687        1.7035574548  PROA      11              0.0000000000
       112        11  GLY       C             -15.9203331397        0.8428786666        0.9995498298  PROA      11             88.2900000000
       113        11  GLY       OT1           -16.0072974635       -0.3603862246        0.6359692914  PROA      11              0.0000000000
       114        11  GLY       OT2           -16.8551573993        1.4809405612        1.5532470598  PROA      11              0.0000000000
       115        12  TIP3      OH2            -3.6077403985      -35.7668657466      -26.7654746635  SOLV      1               0.0000000000
       116        12  TIP3      H1             -4.2962803985      -35.1087957466      -26.8608146635  SOLV      1               0.0000000000
       117        12  TIP3      H2             -3.5922803985      -35.9640757466      -25.8289346635  SOLV      1               0.0000000000
       118        13  TIP3      OH2            -6.8338303985      -26.5003457466      -29.6187346635  SOLV      2               0.0000000000
       119        13  TIP3      H1             -7.7754603985      -26.4419557466      -29.4570446635  SOLV      2               0.0000000000
       120        13  TIP3      H2             -6.5572203985      -25.5942957466      -29.7557646635  SOLV      2               0.0000000000
       121        14  TIP3      OH2            -5.7360403985      -28.2514757466      -26.0075646635  SOLV      3               0.0000000000
       122        14  TIP3      H1             -5.5964103985      -28.8432257466      -26.7468646635  SOLV      3               0.0000000000
       123        14  TIP3      H2             -5.5687603985      -27.3788857466      -26.3636846635  SOLV      3               0.0000000000
       124        15  TIP3      OH2            -3.8941103985      -31.9116757466      -27.9415246635  SOLV      4               0.0000000000
       125        15  TIP3      H1             -4.5467003985      -31.2171157466      -27.8524346635  SOLV      4               0.0000000000
       126        15  TIP3      H2             -3.4290803985      -31.7015857466      -28.7513646635  SOLV      4               0.0000000000
       127        16  TIP3      OH2            -7.9603803985      -32.9059357466      -26.2156746635  SOLV      5               0.0000000000
       128        16  TIP3      H1             -7.8804703985      -32.1424957466      -25.6438246635  SOLV      5               0.0000000000
       129        16  TIP3      H2             -8.5616103985      -32.6266957466      -26.9061646635  SOLV      5               0.0000000000
       130        17  TIP3      OH2            -9.5365903985      -26.1778257466      -29.0333246635  SOLV      6               0.0000000000
       131        17  TIP3      H1             -9.7769303985      -25.5155157466      -28.3854046635  SOLV      6               0.0000000000
       132        17  TIP3      H2             -9.7347703985      -27.0123057466      -28.6083646635  SOLV      6               0.0000000000
       133        18  TIP3      OH2           -14.9657403985      -27.2817457466      -25.0501846635  SOLV      7               0.0000000000
       134        18  TIP3      H1            -15.2769903985      -26.4994257466      -24.5948646635  SOLV      7               0.0000000000
       135        18  TIP3      H2            -15.6157203985      -27.4348357466      -25.7359846635  SOLV      7               0.0000000000
       136        19  TIP3      OH2           -16.7261503985      -25.2102457466      -24.2868046635  SOLV      8               0.0000000000
       137        19  TIP3      H1            -16.7186203985      -25.3462757466      -25.2342546635  SOLV      8               0.0000000000
       138        19  TIP3      H2            -17.6421103985      -25.3274357466      -24.0348046635  SOLV      8               0.0000000000
       139        20  TIP3      OH2            -3.1809603985      -25.5708757466      -24.4302246635  SOLV      9               0.0000000000
       140        20  TIP3      H1             -3.2302803985      -26.5260657466      -24.4674646635  SOLV      9               0.0000000000
       141        20  TIP3      H2             -4.0077303985      -25.3033457466      -24.0288446635  SOLV      9               0.0000000000
       142        21  TIP3      OH2           -12.2025603985      -25.9969557466      -25.5540846635  SOLV      10              0.0000000000
       143        21  TIP3      H1            -12.1151003985      -25.1704957466      -25.0791746635  SOLV      10              0.0000000000
       144        21  TIP3      H2            -13.0660503985      -26.3265757466      -25.3051546635  SOLV      10              0.0000000000
       145        22  TIP3      OH2            -6.0289803985      -34.0776257466      -23.9500046635  SOLV      11              0.0000000000
       146        22  TIP3      H1             -6.4363003985      -33.5970657466      -24.6706746635  SOLV      11              0.0000000000
       147        22  TIP3      H2             -5.9884103985      -34.9830257466      -24.2579246635  SOLV      11              0.0000000000
       148        23  TIP3      OH2            -8.2719603985      -35.7460757466      -25.7297646635  SOLV      12              0.0000000000
       149        23  TIP3      H1             -8.7860103985      -35.8718557466      -24.9321646635  SOLV      12              0.0000000000
       150        23  TIP3      H2             -8.4274903985      -34.8337657466      -25.9741446635  SOLV      12              0.0000000000
       151        24  TIP3      OH2           -11.5356003985      -33.4455057466      -23.6457446635  SOLV      13              0.0000000000
       152        24  TIP3      H1            -12.0982203985      -34.1503457466      -23.3249646635  SOLV      13              0.0000000000
       153        24  TIP3      H2            -10.7092603985      -33.5663157466      -23.1779846635  SOLV      13              0.0000000000
       154        25  TIP3      OH2            -5.8990803985      -21.7032557466      -23.3235446635  SOLV      14              0.0000000000
       155        25  TIP3      H1             -5.6992103985      -21.2790657466      -24.1580146635  SOLV      14              0.0000000000
       156        25  TIP3      H2             -5.2437103985      -21.3594357466      -22.7165046635  SOLV      14              0.0000000000
       157        26  TIP3      OH2            -5.9510703985      -30.0879257466      -28.0920846635  SOLV      15              0.0000000000
       158        26  TIP3      H1             -5.3091903985      -29.6312957466      -28.6358646635  SOLV      15              0.0000000000
       159        26  TIP3      H2             -6.7813803985      -29.9746857466      -28.5546746635  SOLV      15              0.0000000000
       160        27  TIP3      OH2           -11.5817503985      -29.0364157466      -25.6419346635  SOLV      16              0.0000000000
       161        27  TIP3      H1            -11.9271403985      -29.4181757466      -24.8349746635  SOLV      16              0.0000000000
       162        27  TIP3      H2            -11.7817403985      -28.1030557466      -25.5706446635  SOLV      16              0.0000000000
       163        28  TIP3      OH2           -13.9516703985      -31.9480657466      -23.5812346635  SOLV      17              0.0000000000
       164        28  TIP3      H1            -14.2475903985      -32.1137657466      -24.4763246635  SOLV      17              0.0000000000
       165        28  TIP3      H2            -13.0201503985      -32.1680357466      -23.5918446635  SOLV      17              0.0000000000
       166        29  TIP3      OH2            -9.3313903985      -26.5748657466      -25.6914346635  SOLV      18              0.0000000000
       167        29  TIP3      H1            -10.2319603985      -26.3916057466      -25.9590446635  SOLV      18              0.0000000000
       168        29  TIP3      H2             -9.2972803985      -26.3159357466      -24.7705546635  SOLV      18              0.0000000000
       169        30  TIP3      OH2            -3.6368603985      -28.5299057466      -24.4870246635  SOLV      19              0.0000000000
       170        30  TIP3      H1             -4.4880103985      -28.2915257466      -24.8543846635  SOLV      19              0.0000000000
       171        30  TIP3      H2             -3.0465203985      -28.5465857466      -25.2403146635  SOLV      19              0.0000000000
       172        31  TIP3      OH2           -13.6593003985      -24.5955757466      -27.8133646635  SOLV      20              0.0000000000
       173        31  TIP3      H1            -13.2968303985      -23.7410157466      -28.0469246635  SOLV      20              0.0000000000
       174        31  TIP3      H2            -13.1277803985      -24.8874157466      -27.0727346635  SOLV      20              0.0000000000
       175        32  TIP3      OH2            -7.4568003985      -23.9445557466      -25.6433246635  SOLV      21              0.0000000000
       176        32  TIP3      H1             -8.0584803985      -24.5002657466      -26.1386946635  SOLV      21              0.0000000000
       177        32  TIP3      H2             -7.1754303985      -23.2775757466      -26.2695846635  SOLV      21              0.0000000000
       178        33  TIP3      OH2            -5.8751703985      -36.6974057466      -25.3945046635  SOLV      22              0.0000000000
       179        33  TIP3      H1             -6.7915903985      -36.4352357466      -25.4821346635  SOLV      22              0.0000000000
       180        33  TIP3      H2             -5.5396703985      -36.7005057466      -26.2909746635  SOLV      22              0.0000000000
       181        34  TIP3      OH2            -6.1866103985      -23.6910557466      -29.6764246635  SOLV      23              0.0000000000
       182        34  TIP3      H1             -6.3421803985      -23.0126157466      -30.3334946635  SOLV      23              0.0000000000
       183        34  TIP3      H2             -5.2539703985      -23.6191257466      -29.4733646635  SOLV      23              0.0000000000
       184        35  TIP3      OH2           -20.4726703985      -23.0202057466      -23.4489046635  SOLV      24              0.0000000000
       185        35  TIP3      H1            -19.9324503985      -23.2368057466      -22.6889846635  SOLV      24              0.0000000000
       186        35  TIP3      H2            -20.9538703985      -23.8256057466      -23.6386546635  SOLV      24              0.0000000000
       187        36  TIP3      OH2           -15.8753303985      -24.1007657466      -21.8284846635  SOLV      25              0.0000000000
       188        36  TIP3      H1            -15.1076103985      -24.5596857466      -21.4875646635  SOLV      25              0.0000000000
       189        36  TIP3      H2            -15.8967103985      -24.3267857466      -22.7583646635  SOLV      25              0.0000000000
       190        37  TIP3      OH2            -9.2984603985      -25.7206557466      -23.0993346635  SOLV      26              0.0000000000
       191        37  TIP3      H1             -9.6495103985      -26.5773557466      -22.8562946635  SOLV      26              0.0000000000
       192        37  TIP3      H2             -8.5721403985      -25.5779857466      -22.4924346635  SOLV      26              0.0000000000
       193        38  TIP3      OH2           -13.9101103985      -29.2399857466      -23.0618346635  SOLV      27              0.0000000000
       194        38  TIP3      H1            -14.2387303985      -28.9691757466      -23.9190946635  SOLV      27              0.0000000000
       195        38  TIP3      H2            -13.7582903985      -30.1810057466      -23.1493346635  SOLV      27              0.0000000000
       196        39  TIP3      OH2            -8.1755903985      -29.3242557466      -25.6786046635  SOLV      28              0.0000000000
       197        39  TIP3      H1             -7.4301103985      -28.7358857466      -25.7982046635  SOLV      28              0.0000000000
       198        39  TIP3      H2             -8.9329103985      -28.7422857466      -25.6152946635  SOLV      28              0.0000000000
       199        40  TIP3      OH2           -10.7662203985      -30.5293657466      -22.4227746635  SOLV      29              0.0000000000
       200        40  TIP3      H1             -9.8131003985      -30.4454557466      -22.4501746635  SOLV      29              0.0000000000
       201        40  TIP3      H2            -10.9267603985      -31.2411857466      -21.8032846635  SOLV      29              0.0000000000
       202        41  TIP3      OH2            -9.0366403985      -34.0214357466      -21.8571546635  SOLV      30              0.0000000000
       203        41  TIP3      H1             -8.8445103985      -34.9524957466      -21.9687046635  SOLV      30              0.0000000000
       204        41  TIP3      H2             -8.1790103985      -33.5964857466      -21.8676146635  SOLV      30              0.0000000000
       205        42  TIP3      OH2            -7.7199203985      -31.2329157466      -23.7798846635  SOLV      31              0.0000000000
       206        42  TIP3      H1             -8.0014203985      -30.5234557466      -24.3575046635  SOLV      31              0.0000000000
       207        42  TIP3      H2             -6.7774903985      -31.3056157466      -23.9307646635  SOLV      31              0.0000000000
       208        43  TIP3      OH2           -12.9645003985      -35.4981257466      -23.1300046635  SOLV      32              0.0000000000
       209        43  TIP3      H1            -13.1999603985      -35.7174557466      -22.2285146635  SOLV      32              0.0000000000
       210        43  TIP3      H2            -13.7478103985      -35.7050057466      -23.6397546635  SOLV      32              0.0000000000
       211        44  TIP3      OH2           -10.2488403985      -36.3707757466      -24.0546546635  SOLV      33              0.0000000000
       212        44  TIP3      H1            -11.1963003985      -36.3388057466      -23.9223246635  SOLV      33              0.0000000000
       213        44  TIP3      H2             -9.9361703985      -36.9960657466      -23.4008346635  SOLV      33              0.0000000000
       214        45  TIP3      OH2            -3.4708103985      -23.0404857466      -29.4472346635  SOLV      34              0.0000000000
       215        45  TIP3      H1             -3.4921403985      -22.8556457466      -28.5082946635  SOLV      34              0.0000000000
       216        45  TIP3      H2             -2.7801903985      -22.4720857466      -29.7880946635  SOLV      34              0.0000000000
       217        46  TIP3      OH2            -3.9075203985      -23.4733757466      -26.5253246635  SOLV      35              0.0000000000
       218        46  TIP3      H1             -4.3946503985      -24.2089657466      -26.8965846635  SOLV      35              0.0000000000
       219        46  TIP3      H2             -3.3582503985      -23.8669857466      -25.8473846635  SOLV      35              0.0000000000
       220        47  TIP3      OH2            -5.4567903985      -27.6835657466      -21.8872946635  SOLV      36              0.0000000000
       221        47  TIP3      H1             -6.3226803985      -27.7885957466      -21.4930646635  SOLV      36              0.0000000000
       222        47  TIP3      H2             -5.0802003985      -26.9252357466      -21.4408246635  SOLV      36              0.0000000000
       223        48  TIP3      OH2            -4.0021403985      -28.5887057466      -29.6017146635  SOLV      37              0.0000000000
       224        48  TIP3      H1             -3.1687203985      -28.9667057466      -29.8823546635  SOLV      37              0.0000000000
       225        48  TIP3      H2             -3.8901103985      -27.6455857466      -29.7208046635  SOLV      37              0.0000000000
       226        49  TIP3      OH2            -5.5159103985      -25.7109557466      -27.2948746635  SOLV      38              0.0000000000
       227        49  TIP3      H1             -6.1633803985      -25.3858057466      -26.6693546635  SOLV      38              0.0000000000
       228        49  TIP3      H2             -6.0335103985      -26.1511857466      -27.9690446635  SOLV      38              0.0000000000
       229        50  TIP3      OH2            -5.1182903985      -30.8824757466      -24.3477746635  SOLV      39              0.0000000000
       230        50  TIP3      H1             -4.5355603985      -31.6172457466      -24.1560546635  SOLV      39              0.0000000000
       231        50  TIP3      H2             -4.5543603985      -30.1104457466      -24.3011946635  SOLV      39              0.0000000000
       232        51  TIP3      OH2            -3.6215803985      -32.9798957466      -23.6632346635  SOLV      40              0.0000000000
       233        51  TIP3      H1             -4.4849103985      -33.3586857466      -23.8287646635  SOLV      40              0.0000000000
       234        51  TIP3      H2             -3.0172103985      -33.7184157466      -23.7376546635  SOLV      40              0.0000000000
       235        52  TIP3      OH2            -5.6230803985      -33.9519557466      -27.3122646635  SOLV      41              0.0000000000
       236        52  TIP3      H1             -6.4659503985      -33.6839157466      -26.9462846635  SOLV      41              0.0000000000
       237        52  TIP3      H2             -5.1806503985      -33.1297657466      -27.5231546635  SOLV      41              0.0000000000
       238        53  TIP3      OH2           -19.3474603985      -26.0214057466      -23.3319646635  SOLV      42              0.0000000000
       239        53  TIP3      H1            -20.1682103985      -25.8467557466      -23.7924946635  SOLV      42              0.0000000000
       240        53  TIP3      H2            -19.5996803985      -26.0949357466      -22.4115246635  SOLV      42              0.0000000000
       241        54  TIP3      OH2           -12.0820303985      -23.6482857466      -24.1141946635  SOLV      43              0.0000000000
       242        54  TIP3      H1            -11.8972803985      -23.9816757466      -23.2361646635  SOLV      43              0.0000000000
       243        54  TIP3      H2            -11.2355803985      -23.3384257466      -24.4362746635  SOLV      43              0.0000000000
       244        55  TIP3      OH2            -9.7369903985      -22.3623957466      -24.8700546635  SOLV      44              0.0000000000
       245        55  TIP3      H1             -9.0601003985      -22.9951657466      -25.1101346635  SOLV      44              0.0000000000
       246        55  TIP3      H2             -9.4151103985      -21.9613457466      -24.0627246635  SOLV      44              0.0000000000
       247        56  TIP3      OH2           -11.8136803985      -22.3026157466      -28.8207146635  SOLV      45              0.0000000000
       248        56  TIP3      H1            -12.2702803985      -21.7736457466      -29.4748746635  SOLV      45              0.0000000000
       249        56  TIP3      H2            -11.6508803985      -21.6994757466      -28.0954846635  SOLV      45              0.0000000000
       250        57  TIP3      OH2            -9.4860503985      -23.4246557466      -27.8756846635  SOLV      46              0.0000000000
       251        57  TIP3      H1            -10.3906803985      -23.2596357466      -28.1414746635  SOLV      46              0.0000000000
       252        57  TIP3      H2             -9.0571903985      -22.5714357466      -27.9413446635  SOLV      46              0.0000000000
       253        58  TIP3      OH2            -6.8818603985      -21.8547457466      -27.5809046635  SOLV      47              0.0000000000
       254        58  TIP3      H1             -7.0636603985      -20.9388557466      -27.7914146635  SOLV      47              0.0000000000
       255        58  TIP3      H2             -6.7050803985      -22.2650357466      -28.4274446635  SOLV      47              0.0000000000
       256        59  TIP3      OH2            -5.5347903985      -24.4199657466      -23.7177146635  SOLV      48              0.0000000000
       257        59  TIP3      H1             -6.3166003985      -24.6061657466      -24.2376546635  SOLV      48              0.0000000000
       258        59  TIP3      H2             -5.6068003985      -23.4905357466      -23.5004646635  SOLV      48              0.0000000000
       259        60  TIP3      OH2             0.1728796015      -31.6642457466      -28.6751846635  SOLV      49              0.0000000000
       260        60  TIP3      H1              0.2140896015      -32.2899157466      -27.9519446635  SOLV      49              0.0000000000
       261        60  TIP3      H2              0.8756496015      -31.0403857466      -28.4931446635  SOLV      49              0.0000000000
       262        61  TIP3      OH2             1.0961896015      -27.2143557466      -30.1402746635  SOLV      50              0.0000000000
       263        61  TIP3      H1              0.7267096015      -28.0163057466      -30.5098446635  SOLV      50              0.0000000000
       264        61  TIP3      H2              2.0372996015      -27.3828657466      -30.0939346635  SOLV      50              0.0000000000
       265        62  TIP3      OH2             8.6219496015      -23.2352457466      -31.7546246635  SOLV      51              0.0000000000
       266        62  TIP3      H1              9.2415896015      -23.9117757466      -32.0277046635  SOLV      51              0.0000000000
       267        62  TIP3      H2              8.4136896015      -23.4531657466      -30.8461346635  SOLV      51              0.0000000000
       268        63  TIP3      OH2             6.1938196015      -28.8463157466      -29.8620746635  SOLV      52              0.0000000000
       269        63  TIP3      H1              6.4976096015      -29.5321757466      -30.4566646635  SOLV      52              0.0000000000
       270        63  TIP3      H2              6.9152196015      -28.7274457466      -29.2442746635  SOLV      52              0.0000000000
       271        64  TIP3      OH2             3.8686796015      -29.7570257466      -27.9006646635  SOLV      53              0.0000000000
       272        64  TIP3      H1              3.1285896015      -29.1588757466      -27.7971446635  SOLV      53              0.0000000000
       273        64  TIP3      H2              4.5826296015      -29.2030657466      -28.2163046635  SOLV      53              0.0000000000
       274        65  TIP3      OH2             0.8932696015      -35.5404157466      -30.2358146635  SOLV      54              0.0000000000
       275        65  TIP3      H1              1.5068996015      -34.9076557466      -29.8625746635  SOLV      54              0.0000000000
       276        65  TIP3      H2              1.4053396015      -36.0129157466      -30.8921246635  SOLV      54              0.0000000000
       277        66  TIP3      OH2             2.2761096015      -27.7927257466      -27.1135146635  SOLV      55              0.0000000000
       278        66  TIP3      H1              2.2708696015      -26.9133757466      -27.4915846635  SOLV      55              0.0000000000
       279        66  TIP3      H2              1.4225196015      -27.8763157466      -26.6885246635  SOLV      55              0.0000000000
       280        67  TIP3      OH2            12.0221696015      -26.5003457466      -29.6187346635  SOLV      56              0.0000000000
       281        67  TIP3      H1             11.0805396015      -26.4419557466      -29.4570446635  SOLV      56              0.0000000000
       282        67  TIP3      H2             12.2987796015      -25.5942957466      -29.7557646635  SOLV      56              0.0000000000
       283        68  TIP3      OH2            10.2742896015      -24.7189957466      -32.9935746635  SOLV      57              0.0000000000
       284        68  TIP3      H1             10.6995196015      -25.4262057466      -33.4786146635  SOLV      57              0.0000000000
       285        68  TIP3      H2             10.5912896015      -23.9177257466      -33.4103546635  SOLV      57              0.0000000000
       286        69  TIP3      OH2            13.1199596015      -28.2514757466      -26.0075646635  SOLV      58              0.0000000000
       287        69  TIP3      H1             13.2595896015      -28.8432257466      -26.7468646635  SOLV      58              0.0000000000
       288        69  TIP3      H2             13.2872396015      -27.3788857466      -26.3636846635  SOLV      58              0.0000000000
       289        70  TIP3      OH2            10.8956196015      -32.9059357466      -26.2156746635  SOLV      59              0.0000000000
       290        70  TIP3      H1             10.9755296015      -32.1424957466      -25.6438246635  SOLV      59              0.0000000000
       291        70  TIP3      H2             10.2943896015      -32.6266957466      -26.9061646635  SOLV      59              0.0000000000
       292        71  TIP3      OH2             2.6436396015      -30.4495757466      -33.4008746635  SOLV      60              0.0000000000
       293        71  TIP3      H1              2.3131596015      -30.8202357466      -34.2191746635  SOLV      60              0.0000000000
       294        71  TIP3      H2              3.2320496015      -31.1201757466      -33.0540446635  SOLV      60              0.0000000000
       295        72  TIP3      OH2             4.0103896015      -27.0215157466      -30.7196546635  SOLV      61              0.0000000000
       296        72  TIP3      H1              3.9155196015      -27.6002057466      -31.4761946635  SOLV      61              0.0000000000
       297        72  TIP3      H2              4.7397496015      -27.3929457466      -30.2233746635  SOLV      61              0.0000000000
       298        73  TIP3      OH2             3.0101896015      -31.6810157466      -29.7673746635  SOLV      62              0.0000000000
       299        73  TIP3      H1              3.5754396015      -31.5595957466      -30.5302546635  SOLV      62              0.0000000000
       300        73  TIP3      H2              3.3290796015      -31.0435157466      -29.1285246635  SOLV      62              0.0000000000
       301        74  TIP3      OH2             9.3194096015      -26.1778257466      -29.0333246635  SOLV      63              0.0000000000
       302        74  TIP3      H1              9.0790696015      -25.5155157466      -28.3854046635  SOLV      63              0.0000000000
       303        74  TIP3      H2              9.1212296015      -27.0123057466      -28.6083646635  SOLV      63              0.0000000000
       304        75  TIP3      OH2             3.8902596015      -27.2817457466      -25.0501846635  SOLV      64              0.0000000000
       305        75  TIP3      H1              3.5790096015      -26.4994257466      -24.5948646635  SOLV      64              0.0000000000
       306        75  TIP3      H2              3.2402796015      -27.4348357466      -25.7359846635  SOLV      64              0.0000000000
       307        76  TIP3      OH2             0.8102496015      -31.0836357466      -25.8216146635  SOLV      65              0.0000000000
       308        76  TIP3      H1              0.8805696015      -30.4329557466      -25.1231146635  SOLV      65              0.0000000000
       309        76  TIP3      H2             -0.0805303985      -30.9808857466      -26.1565246635  SOLV      65              0.0000000000
       310        77  TIP3      OH2             7.5957096015      -25.1810557466      -34.1629446635  SOLV      66              0.0000000000
       311        77  TIP3      H1              8.0694696015      -24.8854257466      -33.3855246635  SOLV      66              0.0000000000
       312        77  TIP3      H2              7.0326396015      -24.4428957466      -34.3959846635  SOLV      66              0.0000000000
       313        78  TIP3      OH2            -2.2730803985      -29.0172257466      -26.9966146635  SOLV      67              0.0000000000
       314        78  TIP3      H1             -2.7742403985      -29.0452857466      -27.8116446635  SOLV      67              0.0000000000
       315        78  TIP3      H2             -2.2677103985      -29.9229057466      -26.6868846635  SOLV      67              0.0000000000
       316        79  TIP3      OH2            -2.5228103985      -26.2368457466      -30.1125946635  SOLV      68              0.0000000000
       317        79  TIP3      H1             -1.5767503985      -26.3811457466      -30.1316446635  SOLV      68              0.0000000000
       318        79  TIP3      H2             -2.6351803985      -25.4525657466      -29.5754746635  SOLV      68              0.0000000000
       319        80  TIP3      OH2            15.6750396015      -25.5708757466      -24.4302246635  SOLV      69              0.0000000000
       320        80  TIP3      H1             15.6257196015      -26.5260657466      -24.4674646635  SOLV      69              0.0000000000
       321        80  TIP3      H2             14.8482696015      -25.3033457466      -24.0288446635  SOLV      69              0.0000000000
       322        81  TIP3      OH2             6.6534396015      -25.9969557466      -25.5540846635  SOLV      70              0.0000000000
       323        81  TIP3      H1              6.7408996015      -25.1704957466      -25.0791746635  SOLV      70              0.0000000000
       324        81  TIP3      H2              5.7899496015      -26.3265757466      -25.3051546635  SOLV      70              0.0000000000
       325        82  TIP3      OH2             7.0680196015      -22.2245857466      -35.7480246635  SOLV      71              0.0000000000
       326        82  TIP3      H1              6.9926196015      -22.3458657466      -36.6945046635  SOLV      71              0.0000000000
       327        82  TIP3      H2              7.1008896015      -21.2753157466      -35.6295646635  SOLV      71              0.0000000000
       328        83  TIP3      OH2             0.7213996015      -23.4358857466      -33.9671246635  SOLV      72              0.0000000000
       329        83  TIP3      H1              0.8734396015      -23.7838457466      -33.0884746635  SOLV      72              0.0000000000
       330        83  TIP3      H2             -0.1295603985      -23.7921557466      -34.2224046635  SOLV      72              0.0000000000
       331        84  TIP3      OH2            12.8270196015      -34.0776257466      -23.9500046635  SOLV      73              0.0000000000
       332        84  TIP3      H1             12.4196996015      -33.5970657466      -24.6706746635  SOLV      73              0.0000000000
       333        84  TIP3      H2             12.8675896015      -34.9830257466      -24.2579246635  SOLV      73              0.0000000000
       334        85  TIP3      OH2            -0.0240303985      -27.6936857466      -25.9533346635  SOLV      74              0.0000000000
       335        85  TIP3      H1              0.1920996015      -28.0551257466      -25.0937546635  SOLV      74              0.0000000000
       336        85  TIP3      H2             -0.8795603985      -28.0683057466      -26.1629846635  SOLV      74              0.0000000000
       337        86  TIP3      OH2            10.5840396015      -35.7460757466      -25.7297646635  SOLV      75              0.0000000000
       338        86  TIP3      H1             10.0699896015      -35.8718557466      -24.9321646635  SOLV      75              0.0000000000
       339        86  TIP3      H2             10.4285096015      -34.8337657466      -25.9741446635  SOLV      75              0.0000000000
       340        87  TIP3      OH2             2.6857796015      -34.2581857466      -28.8628946635  SOLV      76              0.0000000000
       341        87  TIP3      H1              2.0439896015      -34.2984557466      -28.1538846635  SOLV      76              0.0000000000
       342        87  TIP3      H2              2.7229796015      -33.3317157466      -29.1005946635  SOLV      76              0.0000000000
       343        88  TIP3      OH2             7.3203996015      -33.4455057466      -23.6457446635  SOLV      77              0.0000000000
       344        88  TIP3      H1              6.7577796015      -34.1503457466      -23.3249646635  SOLV      77              0.0000000000
       345        88  TIP3      H2              8.1467396015      -33.5663157466      -23.1779846635  SOLV      77              0.0000000000
       346        89  TIP3      OH2             0.4358296015      -33.9378357466      -26.9956946635  SOLV      78              0.0000000000
       347        89  TIP3      H1              0.3977696015      -33.5376757466      -26.1269846635  SOLV      78              0.0000000000
       348        89  TIP3      H2             -0.0550603985      -34.7545957466      -26.9054046635  SOLV      78              0.0000000000
       349        90  TIP3      OH2             8.4869296015      -32.5369757466      -27.6486046635  SOLV      79              0.0000000000
       350        90  TIP3      H1              8.8104096015      -33.1680057466      -28.2915546635  SOLV      79              0.0000000000
       351        90  TIP3      H2              8.0468596015      -33.0717557466      -26.9878646635  SOLV      79              0.0000000000
       352        91  TIP3      OH2            12.9569196015      -21.7032557466      -23.3235446635  SOLV      80              0.0000000000
       353        91  TIP3      H1             13.1567896015      -21.2790657466      -24.1580146635  SOLV      80              0.0000000000
       354        91  TIP3      H2             13.6122896015      -21.3594357466      -22.7165046635  SOLV      80              0.0000000000
       355        92  TIP3      OH2             0.5548996015      -29.2291257466      -23.7154946635  SOLV      81              0.0000000000
       356        92  TIP3      H1              1.2871396015      -28.9745357466      -23.1540446635  SOLV      81              0.0000000000
       357        92  TIP3      H2             -0.2252303985      -29.0245857466      -23.1999546635  SOLV      81              0.0000000000
       358        93  TIP3      OH2             5.2107796015      -35.4335157466      -28.5634846635  SOLV      82              0.0000000000
       359        93  TIP3      H1              4.3753096015      -34.9795657466      -28.4532446635  SOLV      82              0.0000000000
       360        93  TIP3      H2              5.7348396015      -35.1576657466      -27.8114946635  SOLV      82              0.0000000000
       361        94  TIP3      OH2            12.9049296015      -30.0879257466      -28.0920846635  SOLV      83              0.0000000000
       362        94  TIP3      H1             13.5468096015      -29.6312957466      -28.6358646635  SOLV      83              0.0000000000
       363        94  TIP3      H2             12.0746196015      -29.9746857466      -28.5546746635  SOLV      83              0.0000000000
       364        95  TIP3      OH2             7.2742496015      -29.0364157466      -25.6419346635  SOLV      84              0.0000000000
       365        95  TIP3      H1              6.9288596015      -29.4181757466      -24.8349746635  SOLV      84              0.0000000000
       366        95  TIP3      H2              7.0742596015      -28.1030557466      -25.5706446635  SOLV      84              0.0000000000
       367        96  TIP3      OH2             0.8798696015      -29.9257457466      -31.1090546635  SOLV      85              0.0000000000
       368        96  TIP3      H1              1.6245896015      -29.9281757466      -31.7104046635  SOLV      85              0.0000000000
       369        96  TIP3      H2              0.9575296015      -30.7493657466      -30.6275446635  SOLV      85              0.0000000000
       370        97  TIP3      OH2            -2.1121603985      -31.4650557466      -25.7942046635  SOLV      86              0.0000000000
       371        97  TIP3      H1             -1.8893003985      -31.8830957466      -24.9624546635  SOLV      86              0.0000000000
       372        97  TIP3      H2             -2.7141503985      -32.0775557466      -26.2169246635  SOLV      86              0.0000000000
       373        98  TIP3      OH2             4.9043296015      -31.9480657466      -23.5812346635  SOLV      87              0.0000000000
       374        98  TIP3      H1              4.6084096015      -32.1137657466      -24.4763246635  SOLV      87              0.0000000000
       375        98  TIP3      H2              5.8358496015      -32.1680357466      -23.5918446635  SOLV      87              0.0000000000
       376        99  TIP3      OH2             9.5246096015      -26.5748657466      -25.6914346635  SOLV      88              0.0000000000
       377        99  TIP3      H1              8.6240396015      -26.3916057466      -25.9590446635  SOLV      88              0.0000000000
       378        99  TIP3      H2              9.5587196015      -26.3159357466      -24.7705546635  SOLV      88              0.0000000000
       379       100  TIP3      OH2            15.2191396015      -28.5299057466      -24.4870246635  SOLV      89              0.0000000000
       380       100  TIP3      H1             14.3679896015      -28.2915257466      -24.8543846635  SOLV      89              0.0000000000
       381       100  TIP3      H2             15.8094796015      -28.5465857466      -25.2403146635  SOLV      89              0.0000000000
       382       101  TIP3      OH2             3.2548096015      -26.4079257466      -33.7049046635  SOLV      90              0.0000000000
       383       101  TIP3      H1              3.7820296015      -25.6344857466      -33.9050246635  SOLV      90              0.0000000000
       384       101  TIP3      H2              2.3746596015      -26.1830057466      -34.0065046635  SOLV      90              0.0000000000
       385       102  TIP3      OH2             4.6820396015      -28.7449357466      -34.1284746635  SOLV      91              0.0000000000
       386       102  TIP3      H1              4.4410396015      -27.8194957466      -34.0869446635  SOLV      91              0.0000000000
       387       102  TIP3      H2              3.9413996015      -29.2038057466      -33.7320846635  SOLV      91              0.0000000000
       388       103  TIP3      OH2             5.1966996015      -24.5955757466      -27.8133646635  SOLV      92              0.0000000000
       389       103  TIP3      H1              5.5591696015      -23.7410157466      -28.0469246635  SOLV      92              0.0000000000
       390       103  TIP3      H2              5.7282196015      -24.8874157466      -27.0727346635  SOLV      92              0.0000000000
       391       104  TIP3      OH2             3.3651196015      -23.7231757466      -34.5832546635  SOLV      93              0.0000000000
       392       104  TIP3      H1              2.4151696015      -23.6174357466      -34.5319246635  SOLV      93              0.0000000000
       393       104  TIP3      H2              3.7169296015      -22.9024357466      -34.2385046635  SOLV      93              0.0000000000
       394       105  TIP3      OH2             8.7407796015      -28.4965057466      -28.1128046635  SOLV      94              0.0000000000
       395       105  TIP3      H1              8.3149096015      -28.7243357466      -27.2864046635  SOLV      94              0.0000000000
       396       105  TIP3      H2              9.3213596015      -29.2353257466      -28.2952746635  SOLV      94              0.0000000000
       397       106  TIP3      OH2            11.3991996015      -23.9445557466      -25.6433246635  SOLV      95              0.0000000000
       398       106  TIP3      H1             10.7975196015      -24.5002657466      -26.1386946635  SOLV      95              0.0000000000
       399       106  TIP3      H2             11.6805696015      -23.2775757466      -26.2695846635  SOLV      95              0.0000000000
       400       107  TIP3      OH2            -0.4782103985      -36.7117857466      -26.2360646635  SOLV      96              0.0000000000
       401       107  TIP3      H1             -1.3709803985      -36.3732457466      -26.3036646635  SOLV      96              0.0000000000
       402       107  TIP3      H2             -0.5769303985      -37.5671757466      -25.8179846635  SOLV      96              0.0000000000
       403       108  TIP3      OH2            -0.8270103985      -24.9073457466      -27.8011246635  SOLV      97              0.0000000000
       404       108  TIP3      H1             -0.6099803985      -25.8391057466      -27.8321546635  SOLV      97              0.0000000000
       405       108  TIP3      H2             -0.5806603985      -24.6328457466      -26.9178446635  SOLV      97              0.0000000000
       406       109  TIP3      OH2             6.7762496015      -34.6044357466      -26.2294746635  SOLV      98              0.0000000000
       407       109  TIP3      H1              6.8952796015      -34.0308957466      -25.4724346635  SOLV      98              0.0000000000
       408       109  TIP3      H2              7.4317096015      -35.2924957466      -26.1146946635  SOLV      98              0.0000000000
       409       110  TIP3      OH2             4.0475396015      -24.1443857466      -37.4045346635  SOLV      99              0.0000000000
       410       110  TIP3      H1              4.2084096015      -23.3446357466      -37.9052746635  SOLV      99              0.0000000000
       411       110  TIP3      H2              3.8503196015      -23.8377857466      -36.5194746635  SOLV      99              0.0000000000
       412       111  TIP3      OH2            12.6693896015      -23.6910557466      -29.6764246635  SOLV      100             0.0000000000
       413       111  TIP3      H1             12.5138196015      -23.0126157466      -30.3334946635  SOLV      100             0.0000000000
       414       111  TIP3      H2             13.6020296015      -23.6191257466      -29.4733646635  SOLV      100             0.0000000000
       415       112  TIP3      OH2            -1.6166703985      -23.0202057466      -23.4489046635  SOLV      101             0.0000000000
       416       112  TIP3      H1             -1.0764503985      -23.2368057466      -22.6889846635  SOLV      101             0.0000000000
       417       112  TIP3      H2             -2.0978703985      -23.8256057466      -23.6386546635  SOLV      101             0.0000000000
       418       113  TIP3      OH2             9.5575396015      -25.7206557466      -23.0993346635  SOLV      102             0.0000000000
       419       113  TIP3      H1              9.2064896015      -26.5773557466      -22.8562946635  SOLV      102             0.0000000000
       420       113  TIP3      H2             10.2838596015      -25.5779857466      -22.4924346635  SOLV      102             0.0000000000
       421       114  TIP3      OH2            -1.7097203985      -29.2097957466      -22.4944746635  SOLV      103             0.0000000000
       422       114  TIP3      H1             -1.5656703985      -30.1117257466      -22.7808046635  SOLV      103             0.0000000000
       423       114  TIP3      H2             -2.4819803985      -28.9235857466      -22.9822446635  SOLV      103             0.0000000000
       424       115  TIP3      OH2             4.9458896015      -29.2399857466      -23.0618346635  SOLV      104             0.0000000000
       425       115  TIP3      H1              4.6172696015      -28.9691757466      -23.9190946635  SOLV      104             0.0000000000
       426       115  TIP3      H2              5.0977096015      -30.1810057466      -23.1493346635  SOLV      104             0.0000000000
       427       116  TIP3      OH2            10.6804096015      -29.3242557466      -25.6786046635  SOLV      105             0.0000000000
       428       116  TIP3      H1             11.4258896015      -28.7358857466      -25.7982046635  SOLV      105             0.0000000000
       429       116  TIP3      H2              9.9230896015      -28.7422857466      -25.6152946635  SOLV      105             0.0000000000
       430       117  TIP3      OH2            -0.8770703985      -32.0094657466      -23.0745446635  SOLV      106             0.0000000000
       431       117  TIP3      H1             -0.4689503985      -32.8668057466      -23.1954846635  SOLV      106             0.0000000000
       432       117  TIP3      H2             -1.1373103985      -31.9953357466      -22.1535146635  SOLV      106             0.0000000000
       433       118  TIP3      OH2             3.0699596015      -33.0008957466      -25.7002546635  SOLV      107             0.0000000000
       434       118  TIP3      H1              2.4515696015      -32.3262357466      -25.4197846635  SOLV      107             0.0000000000
       435       118  TIP3      H2              3.4140796015      -32.6795057466      -26.5336346635  SOLV      107             0.0000000000
       436       119  TIP3      OH2             8.0897796015      -30.5293657466      -22.4227746635  SOLV      108             0.0000000000
       437       119  TIP3      H1              9.0428996015      -30.4454557466      -22.4501746635  SOLV      108             0.0000000000
       438       119  TIP3      H2              7.9292396015      -31.2411857466      -21.8032846635  SOLV      108             0.0000000000
       439       120  TIP3      OH2             3.4093296015      -35.6458157466      -24.6179446635  SOLV      109             0.0000000000
       440       120  TIP3      H1              3.5594196015      -36.3746857466      -25.2199746635  SOLV      109             0.0000000000
       441       120  TIP3      H2              3.4115696015      -34.8686457466      -25.1767246635  SOLV      109             0.0000000000
       442       121  TIP3      OH2             5.4037396015      -31.8366157466      -26.8856846635  SOLV      110             0.0000000000
       443       121  TIP3      H1              6.1542196015      -31.9928657466      -27.4589046635  SOLV      110             0.0000000000
       444       121  TIP3      H2              5.0645696015      -30.9849557466      -27.1611346635  SOLV      110             0.0000000000
       445       122  TIP3      OH2             9.8193596015      -34.0214357466      -21.8571546635  SOLV      111             0.0000000000
       446       122  TIP3      H1             10.0114896015      -34.9524957466      -21.9687046635  SOLV      111             0.0000000000
       447       122  TIP3      H2             10.6769896015      -33.5964857466      -21.8676146635  SOLV      111             0.0000000000
       448       123  TIP3      OH2            11.1360796015      -31.2329157466      -23.7798846635  SOLV      112             0.0000000000
       449       123  TIP3      H1             10.8545796015      -30.5234557466      -24.3575046635  SOLV      112             0.0000000000
       450       123  TIP3      H2             12.0785096015      -31.3056157466      -23.9307646635  SOLV      112             0.0000000000
       451       124  TIP3      OH2             1.8879596015      -34.4474657466      -22.7063846635  SOLV      113             0.0000000000
       452       124  TIP3      H1              1.1208596015      -34.9799857466      -22.9166246635  SOLV      113             0.0000000000
       453       124  TIP3      H2              2.5668596015      -34.7574257466      -23.3057546635  SOLV      113             0.0000000000
       454       125  TIP3      OH2             5.8914996015      -35.4981257466      -23.1300046635  SOLV      114             0.0000000000
       455       125  TIP3      H1              5.6560396015      -35.7174557466      -22.2285146635  SOLV      114             0.0000000000
       456       125  TIP3      H2              5.1081896015      -35.7050057466      -23.6397546635  SOLV      114             0.0000000000
       457       126  TIP3      OH2             8.6071596015      -36.3707757466      -24.0546546635  SOLV      115             0.0000000000
       458       126  TIP3      H1              7.6596996015      -36.3388057466      -23.9223246635  SOLV      115             0.0000000000
       459       126  TIP3      H2              8.9198296015      -36.9960657466      -23.4008346635  SOLV      115             0.0000000000
       460       127  TIP3      OH2             0.0682396015      -36.5270857466      -23.0019146635  SOLV      116             0.0000000000
       461       127  TIP3      H1              0.2799796015      -37.2334757466      -23.6121646635  SOLV      116             0.0000000000
       462       127  TIP3      H2             -0.0430103985      -36.9644857466      -22.1577946635  SOLV      116             0.0000000000
       463       128  TIP3      OH2             4.7492396015      -21.9600557466      -38.7925346635  SOLV      117             0.0000000000
       464       128  TIP3      H1              5.6823096015      -21.8021857466      -38.6486946635  SOLV      117             0.0000000000
       465       128  TIP3      H2              4.4851196015      -21.2847557466      -39.4173846635  SOLV      117             0.0000000000
       466       129  TIP3      OH2            -3.0332103985      -21.9308257466      -34.2323346635  SOLV      118             0.0000000000
       467       129  TIP3      H1             -3.6805003985      -22.3926557466      -34.7652146635  SOLV      118             0.0000000000
       468       129  TIP3      H2             -2.6787503985      -22.6024957466      -33.6497146635  SOLV      118             0.0000000000
       469       130  TIP3      OH2            -2.1632903985      -23.8501257466      -32.4277146635  SOLV      119             0.0000000000
       470       130  TIP3      H1             -2.4976103985      -24.7303957466      -32.2556946635  SOLV      119             0.0000000000
       471       130  TIP3      H2             -1.9410503985      -23.5046257466      -31.5631546635  SOLV      119             0.0000000000
       472       131  TIP3      OH2            15.3851896015      -23.0404857466      -29.4472346635  SOLV      120             0.0000000000
       473       131  TIP3      H1             15.3638596015      -22.8556457466      -28.5082946635  SOLV      120             0.0000000000
       474       131  TIP3      H2             16.0758096015      -22.4720857466      -29.7880946635  SOLV      120             0.0000000000
       475       132  TIP3      OH2            14.9484796015      -23.4733757466      -26.5253246635  SOLV      121             0.0000000000
       476       132  TIP3      H1             14.4613496015      -24.2089657466      -26.8965846635  SOLV      121             0.0000000000
       477       132  TIP3      H2             15.4977496015      -23.8669857466      -25.8473846635  SOLV      121             0.0000000000
       478       133  TIP3      OH2            13.3992096015      -27.6835657466      -21.8872946635  SOLV      122             0.0000000000
       479       133  TIP3      H1             12.5333196015      -27.7885957466      -21.4930646635  SOLV      122             0.0000000000
       480       133  TIP3      H2             13.7757996015      -26.9252357466      -21.4408246635  SOLV      122             0.0000000000
       481       134  TIP3      OH2            13.3400896015      -25.7109557466      -27.2948746635  SOLV      123             0.0000000000
       482       134  TIP3      H1             12.6926196015      -25.3858057466      -26.6693546635  SOLV      123             0.0000000000
       483       134  TIP3      H2             12.8224896015      -26.1511857466      -27.9690446635  SOLV      123             0.0000000000
       484       135  TIP3      OH2            -2.0833403985      -30.7745857466      -29.9762246635  SOLV      124             0.0000000000
       485       135  TIP3      H1             -1.8990503985      -30.8564157466      -30.9119346635  SOLV      124             0.0000000000
       486       135  TIP3      H2             -1.2340503985      -30.8988857466      -29.5525846635  SOLV      124             0.0000000000
       487       136  TIP3      OH2            -2.4858603985      -35.5040857466      -23.8353446635  SOLV      125             0.0000000000
       488       136  TIP3      H1             -1.5663703985      -35.6262557466      -23.5990346635  SOLV      125             0.0000000000
       489       136  TIP3      H2             -2.9354103985      -36.2541157466      -23.4459946635  SOLV      125             0.0000000000
       490       137  TIP3      OH2            12.1237896015      -22.9505457466      -33.8750546635  SOLV      126             0.0000000000
       491       137  TIP3      H1             12.7760796015      -23.2983357466      -34.4831446635  SOLV      126             0.0000000000
       492       137  TIP3      H2             12.6341696015      -22.4622257466      -33.2290846635  SOLV      126             0.0000000000
       493       138  TIP3      OH2            -0.4914603985      -26.0214057466      -23.3319646635  SOLV      127             0.0000000000
       494       138  TIP3      H1             -1.3122103985      -25.8467557466      -23.7924946635  SOLV      127             0.0000000000
       495       138  TIP3      H2             -0.7436803985      -26.0949357466      -22.4115246635  SOLV      127             0.0000000000
       496       139  TIP3      OH2             2.4628296015      -25.0472857466      -27.0735646635  SOLV      128             0.0000000000
       497       139  TIP3      H1              2.0379396015      -24.2374357466      -27.3561046635  SOLV      128             0.0000000000
       498       139  TIP3      H2              3.3671096015      -24.9618757466      -27.3755846635  SOLV      128             0.0000000000
       499       140  TIP3      OH2             6.7739696015      -23.6482857466      -24.1141946635  SOLV      129             0.0000000000
       500       140  TIP3      H1              6.9587196015      -23.9816757466      -23.2361646635  SOLV      129             0.0000000000
       501       140  TIP3      H2              7.6204196015      -23.3384257466      -24.4362746635  SOLV      129             0.0000000000
       502       141  TIP3      OH2             9.1190096015      -22.3623957466      -24.8700546635  SOLV      130             0.0000000000
       503       141  TIP3      H1              9.7958996015      -22.9951657466      -25.1101346635  SOLV      130             0.0000000000
       504       141  TIP3      H2              9.4408896015      -21.9613457466      -24.0627246635  SOLV      130             0.0000000000
       505       142  TIP3      OH2            -0.1355003985      -21.7908957466      -27.0260346635  SOLV      131             0.0000000000
       506       142  TIP3      H1             -0.8558603985      -21.3507957466      -27.4772646635  SOLV      131             0.0000000000
       507       142  TIP3      H2             -0.5011003985      -22.0414257466      -26.1776346635  SOLV      131             0.0000000000
       508       143  TIP3      OH2             2.3317596015      -22.1905057466      -27.9963146635  SOLV      132             0.0000000000
       509       143  TIP3      H1              1.4669796015      -22.1186557466      -27.5923046635  SOLV      132             0.0000000000
       510       143  TIP3      H2              2.2766596015      -21.6437757466      -28.7800646635  SOLV      132             0.0000000000
       511       144  TIP3      OH2             7.0423196015      -22.3026157466      -28.8207146635  SOLV      133             0.0000000000
       512       144  TIP3      H1              6.5857196015      -21.7736457466      -29.4748746635  SOLV      133             0.0000000000
       513       144  TIP3      H2              7.2051196015      -21.6994757466      -28.0954846635  SOLV      133             0.0000000000
       514       145  TIP3      OH2             9.3699496015      -23.4246557466      -27.8756846635  SOLV      134             0.0000000000
       515       145  TIP3      H1              8.4653196015      -23.2596357466      -28.1414746635  SOLV      134             0.0000000000
       516       145  TIP3      H2              9.7988096015      -22.5714357466      -27.9413446635  SOLV      134             0.0000000000
       517       146  TIP3      OH2            11.9741396015      -21.8547457466      -27.5809046635  SOLV      135             0.0000000000
       518       146  TIP3      H1             11.7923396015      -20.9388557466      -27.7914146635  SOLV      135             0.0000000000
       519       146  TIP3      H2             12.1509196015      -22.2650357466      -28.4274446635  SOLV      135             0.0000000000
       520       147  TIP3      OH2            -0.7206903985      -23.1676457466      -30.1158546635  SOLV      136             0.0000000000
       521       147  TIP3      H1             -0.7390903985      -23.5931357466      -29.2586246635  SOLV      136             0.0000000000
       522       147  TIP3      H2              0.0840996015      -23.4861457466      -30.5246346635  SOLV      136             0.0000000000
       523       148  TIP3      OH2             1.4206196015      -24.4577757466      -31.4608646635  SOLV      137             0.0000000000
       524       148  TIP3      H1              1.2016896015      -25.3740357466      -31.2912646635  SOLV      137             0.0000000000
       525       148  TIP3      H2              2.2448396015      -24.3177357466      -30.9947246635  SOLV      137             0.0000000000
       526       149  TIP3      OH2             3.9578696015      -23.9878457466      -30.6120646635  SOLV      138             0.0000000000
       527       149  TIP3      H1              4.1704396015      -24.8759457466      -30.8989746635  SOLV      138             0.0000000000
       528       149  TIP3      H2              4.0223796015      -24.0220757466      -29.6576646635  SOLV      138             0.0000000000
       529       150  TIP3      OH2            13.3212096015      -24.4199657466      -23.7177146635  SOLV      139             0.0000000000
       530       150  TIP3      H1             12.5393996015      -24.6061657466      -24.2376546635  SOLV      139             0.0000000000
       531       150  TIP3      H2             13.2491996015      -23.4905357466      -23.5004646635  SOLV      139             0.0000000000
       532       151  TIP3      OH2            22.7462596015      -27.2817457466      -25.0501846635  SOLV      140             0.0000000000
       533       151  TIP3      H1             22.4350096015      -26.4994257466      -24.5948646635  SOLV      140             0.0000000000
       534       151  TIP3      H2             22.0962796015      -27.4348357466      -25.7359846635  SOLV      140             0.0000000000
       535       152  TIP3      OH2            20.9858496015      -25.2102457466      -24.2868046635  SOLV      141             0.0000000000
       536       152  TIP3      H1             20.9933796015      -25.3462757466      -25.2342546635  SOLV      141             0.0000000000
       537       152  TIP3      H2             20.0698896015      -25.3274357466      -24.0348046635  SOLV      141             0.0000000000
       538       153  TIP3      OH2            18.8319696015      -27.6936857466      -25.9533346635  SOLV      142             0.0000000000
       539       153  TIP3      H1             19.0480996015      -28.0551257466      -25.0937546635  SOLV      142             0.0000000000
       540       153  TIP3      H2             17.9764396015      -28.0683057466      -26.1629846635  SOLV      142             0.0000000000
       541       154  TIP3      OH2            19.4108996015      -29.2291257466      -23.7154946635  SOLV      143             0.0000000000
       542       154  TIP3      H1             20.1431396015      -28.9745357466      -23.1540446635  SOLV      143             0.0000000000
       543       154  TIP3      H2             18.6307696015      -29.0245857466      -23.1999546635  SOLV      143             0.0000000000
       544       155  TIP3      OH2            18.0289896015      -24.9073457466      -27.8011246635  SOLV      144             0.0000000000
       545       155  TIP3      H1             18.2460196015      -25.8391057466      -27.8321546635  SOLV      144             0.0000000000
       546       155  TIP3      H2             18.2753396015      -24.6328457466      -26.9178446635  SOLV      144             0.0000000000
       547       156  TIP3      OH2            17.2393296015      -23.0202057466      -23.4489046635  SOLV      145             0.0000000000
       548       156  TIP3      H1             17.7795496015      -23.2368057466      -22.6889846635  SOLV      145             0.0000000000
       549       156  TIP3      H2             16.7581296015      -23.8256057466      -23.6386546635  SOLV      145             0.0000000000
       550       157  TIP3      OH2            21.8366696015      -24.1007657466      -21.8284846635  SOLV      146             0.0000000000
       551       157  TIP3      H1             22.6043896015      -24.5596857466      -21.4875646635  SOLV      146             0.0000000000
       552       157  TIP3      H2             21.8152896015      -24.3267857466      -22.7583646635  SOLV      146             0.0000000000
       553       158  TIP3      OH2            17.1462796015      -29.2097957466      -22.4944746635  SOLV      147             0.0000000000
       554       158  TIP3      H1             17.2903296015      -30.1117257466      -22.7808046635  SOLV      147             0.0000000000
       555       158  TIP3      H2             16.3740196015      -28.9235857466      -22.9822446635  SOLV      147             0.0000000000
       556       159  TIP3      OH2            17.9789296015      -32.0094657466      -23.0745446635  SOLV      148             0.0000000000
       557       159  TIP3      H1             18.3870496015      -32.8668057466      -23.1954846635  SOLV      148             0.0000000000
       558       159  TIP3      H2             17.7186896015      -31.9953357466      -22.1535146635  SOLV      148             0.0000000000
       559       160  TIP3      OH2            18.3645396015      -26.0214057466      -23.3319646635  SOLV      149             0.0000000000
       560       160  TIP3      H1             17.5437896015      -25.8467557466      -23.7924946635  SOLV      149             0.0000000000
       561       160  TIP3      H2             18.1123196015      -26.0949357466      -22.4115246635  SOLV      149             0.0000000000
       562       161  TIP3      OH2            21.3188296015      -25.0472857466      -27.0735646635  SOLV      150             0.0000000000
       563       161  TIP3      H1             20.8939396015      -24.2374357466      -27.3561046635  SOLV      150             0.0000000000
       564       161  TIP3      H2             22.2231096015      -24.9618757466      -27.3755846635  SOLV      150             0.0000000000
       565       162  TIP3      OH2            25.6299696015      -23.6482857466      -24.1141946635  SOLV      151             0.0000000000
       566       162  TIP3      H1             25.8147196015      -23.9816757466      -23.2361646635  SOLV      151             0.0000000000
       567       162  TIP3      H2             26.4764196015      -23.3384257466      -24.4362746635  SOLV      151             0.0000000000
       568       163  TIP3      OH2            27.9750096015      -22.3623957466      -24.8700546635  SOLV      152             0.0000000000
       569       163  TIP3      H1             28.6518996015      -22.9951657466      -25.1101346635  SOLV      152             0.0000000000
       570       163  TIP3      H2             28.2968896015      -21.9613457466      -24.0627246635  SOLV      152             0.0000000000
       571       164  TIP3      OH2            18.7204996015      -21.7908957466      -27.0260346635  SOLV      153             0.0000000000
       572       164  TIP3      H1             18.0001396015      -21.3507957466      -27.4772646635  SOLV      153             0.0000000000
       573       164  TIP3      H2             18.3548996015      -22.0414257466      -26.1776346635  SOLV      153             0.0000000000
       574       165  TIP3      OH2            21.1877596015      -22.1905057466      -27.9963146635  SOLV      154             0.0000000000
       575       165  TIP3      H1             20.3229796015      -22.1186557466      -27.5923046635  SOLV      154             0.0000000000
       576       165  TIP3      H2             21.1326596015      -21.6437757466      -28.7800646635  SOLV      154             0.0000000000
       577       166  TIP3      OH2            18.1353096015      -23.1676457466      -30.1158546635  SOLV      155             0.0000000000
       578       166  TIP3      H1             18.1169096015      -23.5931357466      -29.2586246635  SOLV      155             0.0000000000
       579       166  TIP3      H2             18.9400996015      -23.4861457466      -30.5246346635  SOLV      155             0.0000000000
       580       167  TIP3      OH2           -24.5920403985       -9.3954757466      -26.0075646635  SOLV      156             0.0000000000
       581       167  TIP3      H1            -24.4524103985       -9.9872257466      -26.7468646635  SOLV      156             0.0000000000
       582       167  TIP3      H2            -24.4247603985       -8.5228857466      -26.3636846635  SOLV      156             0.0000000000
       583       168  TIP3      OH2           -24.8849803985      -15.2216257466      -23.9500046635  SOLV      157             0.0000000000
       584       168  TIP3      H1            -25.2923003985      -14.7410657466      -24.6706746635  SOLV      157             0.0000000000
       585       168  TIP3      H2            -24.8444103985      -16.1270257466      -24.2579246635  SOLV      157             0.0000000000
       586       169  TIP3      OH2           -24.7550803985       -2.8472557466      -23.3235446635  SOLV      158             0.0000000000
       587       169  TIP3      H1            -24.5552103985       -2.4230657466      -24.1580146635  SOLV      158             0.0000000000
       588       169  TIP3      H2            -24.0997103985       -2.5034357466      -22.7165046635  SOLV      158             0.0000000000
       589       170  TIP3      OH2           -28.1873903985       -7.7188657466      -25.6914346635  SOLV      159             0.0000000000
       590       170  TIP3      H1            -29.0879603985       -7.5356057466      -25.9590446635  SOLV      159             0.0000000000
       591       170  TIP3      H2            -28.1532803985       -7.4599357466      -24.7705546635  SOLV      159             0.0000000000
       592       171  TIP3      OH2           -26.3128003985       -5.0885557466      -25.6433246635  SOLV      160             0.0000000000
       593       171  TIP3      H1            -26.9144803985       -5.6442657466      -26.1386946635  SOLV      160             0.0000000000
       594       171  TIP3      H2            -26.0314303985       -4.4215757466      -26.2695846635  SOLV      160             0.0000000000
       595       172  TIP3      OH2           -34.7313303985       -5.2447657466      -21.8284846635  SOLV      161             0.0000000000
       596       172  TIP3      H1            -33.9636103985       -5.7036857466      -21.4875646635  SOLV      161             0.0000000000
       597       172  TIP3      H2            -34.7527103985       -5.4707857466      -22.7583646635  SOLV      161             0.0000000000
       598       173  TIP3      OH2           -28.1544603985       -6.8646557466      -23.0993346635  SOLV      162             0.0000000000
       599       173  TIP3      H1            -28.5055103985       -7.7213557466      -22.8562946635  SOLV      162             0.0000000000
       600       173  TIP3      H2            -27.4281403985       -6.7219857466      -22.4924346635  SOLV      162             0.0000000000
       601       174  TIP3      OH2           -29.6222203985      -11.6733657466      -22.4227746635  SOLV      163             0.0000000000
       602       174  TIP3      H1            -28.6691003985      -11.5894557466      -22.4501746635  SOLV      163             0.0000000000
       603       174  TIP3      H2            -29.7827603985      -12.3851857466      -21.8032846635  SOLV      163             0.0000000000
       604       175  TIP3      OH2           -27.8926403985      -15.1654357466      -21.8571546635  SOLV      164             0.0000000000
       605       175  TIP3      H1            -27.7005103985      -16.0964957466      -21.9687046635  SOLV      164             0.0000000000
       606       175  TIP3      H2            -27.0350103985      -14.7404857466      -21.8676146635  SOLV      164             0.0000000000
       607       176  TIP3      OH2           -26.5759203985      -12.3769157466      -23.7798846635  SOLV      165             0.0000000000
       608       176  TIP3      H1            -26.8574203985      -11.6674557466      -24.3575046635  SOLV      165             0.0000000000
       609       176  TIP3      H2            -25.6334903985      -12.4496157466      -23.9307646635  SOLV      165             0.0000000000
       610       177  TIP3      OH2           -22.3268103985       -4.1844857466      -29.4472346635  SOLV      166             0.0000000000
       611       177  TIP3      H1            -22.3481403985       -3.9996457466      -28.5082946635  SOLV      166             0.0000000000
       612       177  TIP3      H2            -21.6361903985       -3.6160857466      -29.7880946635  SOLV      166             0.0000000000
       613       178  TIP3      OH2           -22.7635203985       -4.6173757466      -26.5253246635  SOLV      167             0.0000000000
       614       178  TIP3      H1            -23.2506503985       -5.3529657466      -26.8965846635  SOLV      167             0.0000000000
       615       178  TIP3      H2            -22.2142503985       -5.0109857466      -25.8473846635  SOLV      167             0.0000000000
       616       179  TIP3      OH2           -24.3719103985       -6.8549557466      -27.2948746635  SOLV      168             0.0000000000
       617       179  TIP3      H1            -25.0193803985       -6.5298057466      -26.6693546635  SOLV      168             0.0000000000
       618       179  TIP3      H2            -24.8895103985       -7.2951857466      -27.9690446635  SOLV      168             0.0000000000
       619       180  TIP3      OH2           -23.9742903985      -12.0264757466      -24.3477746635  SOLV      169             0.0000000000
       620       180  TIP3      H1            -23.3915603985      -12.7612457466      -24.1560546635  SOLV      169             0.0000000000
       621       180  TIP3      H2            -23.4103603985      -11.2544457466      -24.3011946635  SOLV      169             0.0000000000
       622       181  TIP3      OH2           -22.4775803985      -14.1238957466      -23.6632346635  SOLV      170             0.0000000000
       623       181  TIP3      H1            -23.3409103985      -14.5026857466      -23.8287646635  SOLV      170             0.0000000000
       624       181  TIP3      H2            -21.8732103985      -14.8624157466      -23.7376546635  SOLV      170             0.0000000000
       625       182  TIP3      OH2           -22.1959203985      -21.1159357466      -21.9587646635  SOLV      171             0.0000000000
       626       182  TIP3      H1            -21.8462203985      -21.7695857466      -22.5642946635  SOLV      171             0.0000000000
       627       182  TIP3      H2            -22.0489703985      -20.2785257466      -22.3985046635  SOLV      171             0.0000000000
       628       183  TIP3      OH2           -22.6762003985      -19.0064757466      -23.6096346635  SOLV      172             0.0000000000
       629       183  TIP3      H1            -23.5936303985      -18.7357657466      -23.6452846635  SOLV      172             0.0000000000
       630       183  TIP3      H2            -22.5532603985      -19.5416357466      -24.3936646635  SOLV      172             0.0000000000
       631       184  TIP3      OH2           -30.9380303985       -4.7922857466      -24.1141946635  SOLV      173             0.0000000000
       632       184  TIP3      H1            -30.7532803985       -5.1256757466      -23.2361646635  SOLV      173             0.0000000000
       633       184  TIP3      H2            -30.0915803985       -4.4824257466      -24.4362746635  SOLV      173             0.0000000000
       634       185  TIP3      OH2           -28.5929903985       -3.5063957466      -24.8700546635  SOLV      174             0.0000000000
       635       185  TIP3      H1            -27.9161003985       -4.1391657466      -25.1101346635  SOLV      174             0.0000000000
       636       185  TIP3      H2            -28.2711103985       -3.1053457466      -24.0627246635  SOLV      174             0.0000000000
       637       186  TIP3      OH2           -25.7378603985       -2.9987457466      -27.5809046635  SOLV      175             0.0000000000
       638       186  TIP3      H1            -25.9196603985       -2.0828557466      -27.7914146635  SOLV      175             0.0000000000
       639       186  TIP3      H2            -25.5610803985       -3.4090357466      -28.4274446635  SOLV      175             0.0000000000
       640       187  TIP3      OH2           -24.3907903985       -5.5639657466      -23.7177146635  SOLV      176             0.0000000000
       641       187  TIP3      H1            -25.1726003985       -5.7501657466      -24.2376546635  SOLV      176             0.0000000000
       642       187  TIP3      H2            -24.4628003985       -4.6345357466      -23.5004646635  SOLV      176             0.0000000000
       643       188  TIP3      OH2            -9.9847503985      -11.6775257466      -33.6869946635  SOLV      177             0.0000000000
       644       188  TIP3      H1             -9.8956403985      -10.7337057466      -33.8192846635  SOLV      177             0.0000000000
       645       188  TIP3      H2            -10.6229903985      -11.9528857466      -34.3450546635  SOLV      177             0.0000000000
       646       189  TIP3      OH2           -11.0516203985      -12.4224557466      -30.2681746635  SOLV      178             0.0000000000
       647       189  TIP3      H1            -11.0898703985      -13.0688257466      -29.5632146635  SOLV      178             0.0000000000
       648       189  TIP3      H2            -11.3739703985      -12.8890157466      -31.0393046635  SOLV      178             0.0000000000
       649       190  TIP3      OH2           -18.6831203985      -12.8082457466      -28.6751846635  SOLV      179             0.0000000000
       650       190  TIP3      H1            -18.6419103985      -13.4339157466      -27.9519446635  SOLV      179             0.0000000000
       651       190  TIP3      H2            -17.9803503985      -12.1843857466      -28.4931446635  SOLV      179             0.0000000000
       652       191  TIP3      OH2            -7.3456003985       -9.4834157466      -31.9666646635  SOLV      180             0.0000000000
       653       191  TIP3      H1             -7.7863303985      -10.2038157466      -31.5161046635  SOLV      180             0.0000000000
       654       191  TIP3      H2             -7.3586303985       -8.7626957466      -31.3368946635  SOLV      180             0.0000000000
       655       192  TIP3      OH2           -17.7598103985       -8.3583557466      -30.1402746635  SOLV      181             0.0000000000
       656       192  TIP3      H1            -18.1292903985       -9.1603057466      -30.5098446635  SOLV      181             0.0000000000
       657       192  TIP3      H2            -16.8187003985       -8.5268657466      -30.0939346635  SOLV      181             0.0000000000
       658       193  TIP3      OH2           -10.2340503985       -4.3792457466      -31.7546246635  SOLV      182             0.0000000000
       659       193  TIP3      H1             -9.6144103985       -5.0557757466      -32.0277046635  SOLV      182             0.0000000000
       660       193  TIP3      H2            -10.4423103985       -4.5971657466      -30.8461346635  SOLV      182             0.0000000000
       661       194  TIP3      OH2           -12.6621803985       -9.9903157466      -29.8620746635  SOLV      183             0.0000000000
       662       194  TIP3      H1            -12.3583903985      -10.6761757466      -30.4566646635  SOLV      183             0.0000000000
       663       194  TIP3      H2            -11.9407803985       -9.8714457466      -29.2442746635  SOLV      183             0.0000000000
       664       195  TIP3      OH2            -3.9992003985      -18.3887857466      -29.0014546635  SOLV      184             0.0000000000
       665       195  TIP3      H1             -3.9499803985      -17.7786657466      -28.2655446635  SOLV      184             0.0000000000
       666       195  TIP3      H2             -3.5736903985      -17.9276957466      -29.7243446635  SOLV      184             0.0000000000
       667       196  TIP3      OH2            -9.5214803985      -15.5960757466      -29.5345946635  SOLV      185             0.0000000000
       668       196  TIP3      H1             -9.3788903985      -16.5423757466      -29.5144346635  SOLV      185             0.0000000000
       669       196  TIP3      H2             -9.6275803985      -15.3890957466      -30.4631046635  SOLV      185             0.0000000000
       670       197  TIP3      OH2            -3.6077403985      -16.9108657466      -26.7654746635  SOLV      186             0.0000000000
       671       197  TIP3      H1             -4.2962803985      -16.2527957466      -26.8608146635  SOLV      186             0.0000000000
       672       197  TIP3      H2             -3.5922803985      -17.1080757466      -25.8289346635  SOLV      186             0.0000000000
       673       198  TIP3      OH2           -10.1874803985       -9.0764857466      -34.6441246635  SOLV      187             0.0000000000
       674       198  TIP3      H1            -10.4829703985       -9.3992557466      -35.4954346635  SOLV      187             0.0000000000
       675       198  TIP3      H2            -10.5117003985       -8.1768157466      -34.6028646635  SOLV      187             0.0000000000
       676       199  TIP3      OH2           -14.9873203985      -10.9010257466      -27.9006646635  SOLV      188             0.0000000000
       677       199  TIP3      H1            -15.7274103985      -10.3028757466      -27.7971446635  SOLV      188             0.0000000000
       678       199  TIP3      H2            -14.2733703985      -10.3470657466      -28.2163046635  SOLV      188             0.0000000000
       679       200  TIP3      OH2            -6.8805403985      -18.0729457466      -31.8806946635  SOLV      189             0.0000000000
       680       200  TIP3      H1             -7.0957403985      -18.8386057466      -31.3480946635  SOLV      189             0.0000000000
       681       200  TIP3      H2             -6.2248003985      -17.6004857466      -31.3678446635  SOLV      189             0.0000000000
       682       201  TIP3      OH2           -16.5798903985       -8.9367257466      -27.1135146635  SOLV      190             0.0000000000
       683       201  TIP3      H1            -16.5851303985       -8.0573757466      -27.4915846635  SOLV      190             0.0000000000
       684       201  TIP3      H2            -17.4334803985       -9.0203157466      -26.6885246635  SOLV      190             0.0000000000
       685       202  TIP3      OH2            -6.8338303985       -7.6443457466      -29.6187346635  SOLV      191             0.0000000000
       686       202  TIP3      H1             -7.7754603985       -7.5859557466      -29.4570446635  SOLV      191             0.0000000000
       687       202  TIP3      H2             -6.5572203985       -6.7382957466      -29.7557646635  SOLV      191             0.0000000000
       688       203  TIP3      OH2            -6.5331303985      -19.3578157466      -28.2013446635  SOLV      192             0.0000000000
       689       203  TIP3      H1             -7.2692103985      -18.7471057466      -28.2392146635  SOLV      192             0.0000000000
       690       203  TIP3      H2             -5.8497303985      -18.9429157466      -28.7277046635  SOLV      192             0.0000000000
       691       204  TIP3      OH2            -8.5817103985       -5.8629957466      -32.9935746635  SOLV      193             0.0000000000
       692       204  TIP3      H1             -8.1564803985       -6.5702057466      -33.4786146635  SOLV      193             0.0000000000
       693       204  TIP3      H2             -8.2647103985       -5.0617257466      -33.4103546635  SOLV      193             0.0000000000
       694       205  TIP3      OH2            -7.4220603985       -7.9621457466      -34.4849146635  SOLV      194             0.0000000000
       695       205  TIP3      H1             -7.6795803985       -8.6521357466      -35.0963246635  SOLV      194             0.0000000000
       696       205  TIP3      H2             -7.3509803985       -8.4050257466      -33.6393246635  SOLV      194             0.0000000000
       697       206  TIP3      OH2            -5.7360403985       -9.3954757466      -26.0075646635  SOLV      195             0.0000000000
       698       206  TIP3      H1             -5.5964103985       -9.9872257466      -26.7468646635  SOLV      195             0.0000000000
       699       206  TIP3      H2             -5.5687603985       -8.5228857466      -26.3636846635  SOLV      195             0.0000000000
       700       207  TIP3      OH2            -3.8941103985      -13.0556757466      -27.9415246635  SOLV      196             0.0000000000
       701       207  TIP3      H1             -4.5467003985      -12.3611157466      -27.8524346635  SOLV      196             0.0000000000
       702       207  TIP3      H2             -3.4290803985      -12.8455857466      -28.7513646635  SOLV      196             0.0000000000
       703       208  TIP3      OH2            -7.8577303985      -12.2241957466      -35.2833746635  SOLV      197             0.0000000000
       704       208  TIP3      H1             -8.5896303985      -11.9958257466      -34.7103146635  SOLV      197             0.0000000000
       705       208  TIP3      H2             -7.4105103985      -12.9379257466      -34.8286246635  SOLV      197             0.0000000000
       706       209  TIP3      OH2            -7.9603803985      -14.0499357466      -26.2156746635  SOLV      198             0.0000000000
       707       209  TIP3      H1             -7.8804703985      -13.2864957466      -25.6438246635  SOLV      198             0.0000000000
       708       209  TIP3      H2             -8.5616103985      -13.7706957466      -26.9061646635  SOLV      198             0.0000000000
       709       210  TIP3      OH2           -14.8456103985       -8.1655157466      -30.7196546635  SOLV      199             0.0000000000
       710       210  TIP3      H1            -14.9404803985       -8.7442057466      -31.4761946635  SOLV      199             0.0000000000
       711       210  TIP3      H2            -14.1162503985       -8.5369457466      -30.2233746635  SOLV      199             0.0000000000
       712       211  TIP3      OH2           -15.8458103985      -12.8250157466      -29.7673746635  SOLV      200             0.0000000000
       713       211  TIP3      H1            -15.2805603985      -12.7035957466      -30.5302546635  SOLV      200             0.0000000000
       714       211  TIP3      H2            -15.5269203985      -12.1875157466      -29.1285246635  SOLV      200             0.0000000000
       715       212  TIP3      OH2            -9.5365903985       -7.3218257466      -29.0333246635  SOLV      201             0.0000000000
       716       212  TIP3      H1             -9.7769303985       -6.6595157466      -28.3854046635  SOLV      201             0.0000000000
       717       212  TIP3      H2             -9.7347703985       -8.1563057466      -28.6083646635  SOLV      201             0.0000000000
       718       213  TIP3      OH2           -14.9657403985       -8.4257457466      -25.0501846635  SOLV      202             0.0000000000
       719       213  TIP3      H1            -15.2769903985       -7.6434257466      -24.5948646635  SOLV      202             0.0000000000
       720       213  TIP3      H2            -15.6157203985       -8.5788357466      -25.7359846635  SOLV      202             0.0000000000
       721       214  TIP3      OH2           -18.0457503985      -12.2276357466      -25.8216146635  SOLV      203             0.0000000000
       722       214  TIP3      H1            -17.9754303985      -11.5769557466      -25.1231146635  SOLV      203             0.0000000000
       723       214  TIP3      H2            -18.9365303985      -12.1248857466      -26.1565246635  SOLV      203             0.0000000000
       724       215  TIP3      OH2           -11.2602903985       -6.3250557466      -34.1629446635  SOLV      204             0.0000000000
       725       215  TIP3      H1            -10.7865303985       -6.0294257466      -33.3855246635  SOLV      204             0.0000000000
       726       215  TIP3      H2            -11.8233603985       -5.5868957466      -34.3959846635  SOLV      204             0.0000000000
       727       216  TIP3      OH2           -16.7261503985       -6.3542457466      -24.2868046635  SOLV      205             0.0000000000
       728       216  TIP3      H1            -16.7186203985       -6.4902757466      -25.2342546635  SOLV      205             0.0000000000
       729       216  TIP3      H2            -17.6421103985       -6.4714357466      -24.0348046635  SOLV      205             0.0000000000
       730       217  TIP3      OH2            -4.0988003985       -6.9456257466      -39.4088946635  SOLV      206             0.0000000000
       731       217  TIP3      H1             -4.0254503985       -6.0066057466      -39.2383646635  SOLV      206             0.0000000000
       732       217  TIP3      H2             -3.1932903985       -7.2507657466      -39.4651646635  SOLV      206             0.0000000000
       733       218  TIP3      OH2           -21.1290803985      -10.1612257466      -26.9966146635  SOLV      207             0.0000000000
       734       218  TIP3      H1            -21.6302403985      -10.1892857466      -27.8116446635  SOLV      207             0.0000000000
       735       218  TIP3      H2            -21.1237103985      -11.0669057466      -26.6868846635  SOLV      207             0.0000000000
       736       219  TIP3      OH2           -21.3788103985       -7.3808457466      -30.1125946635  SOLV      208             0.0000000000
       737       219  TIP3      H1            -20.4327503985       -7.5251457466      -30.1316446635  SOLV      208             0.0000000000
       738       219  TIP3      H2            -21.4911803985       -6.5965657466      -29.5754746635  SOLV      208             0.0000000000
       739       220  TIP3      OH2            -3.1809603985       -6.7148757466      -24.4302246635  SOLV      209             0.0000000000
       740       220  TIP3      H1             -3.2302803985       -7.6700657466      -24.4674646635  SOLV      209             0.0000000000
       741       220  TIP3      H2             -4.0077303985       -6.4473457466      -24.0288446635  SOLV      209             0.0000000000
       742       221  TIP3      OH2           -12.2025603985       -7.1409557466      -25.5540846635  SOLV      210             0.0000000000
       743       221  TIP3      H1            -12.1151003985       -6.3144957466      -25.0791746635  SOLV      210             0.0000000000
       744       221  TIP3      H2            -13.0660503985       -7.4705757466      -25.3051546635  SOLV      210             0.0000000000
       745       222  TIP3      OH2           -11.7879803985       -3.3685857466      -35.7480246635  SOLV      211             0.0000000000
       746       222  TIP3      H1            -11.8633803985       -3.4898657466      -36.6945046635  SOLV      211             0.0000000000
       747       222  TIP3      H2            -11.7551103985       -2.4193157466      -35.6295646635  SOLV      211             0.0000000000
       748       223  TIP3      OH2            -9.0175703985       -4.2888557466      -35.9965646635  SOLV      212             0.0000000000
       749       223  TIP3      H1             -9.9525903985       -4.1886657466      -35.8178646635  SOLV      212             0.0000000000
       750       223  TIP3      H2             -8.7373803985       -4.9982557466      -35.4182446635  SOLV      212             0.0000000000
       751       224  TIP3      OH2            -6.0289803985      -15.2216257466      -23.9500046635  SOLV      213             0.0000000000
       752       224  TIP3      H1             -6.4363003985      -14.7410657466      -24.6706746635  SOLV      213             0.0000000000
       753       224  TIP3      H2             -5.9884103985      -16.1270257466      -24.2579246635  SOLV      213             0.0000000000
       754       225  TIP3      OH2           -18.8800303985       -8.8376857466      -25.9533346635  SOLV      214             0.0000000000
       755       225  TIP3      H1            -18.6639003985       -9.1991257466      -25.0937546635  SOLV      214             0.0000000000
       756       225  TIP3      H2            -19.7355603985       -9.2123057466      -26.1629846635  SOLV      214             0.0000000000
       757       226  TIP3      OH2           -11.5984503985      -20.6455957466      -26.5832146635  SOLV      215             0.0000000000
       758       226  TIP3      H1            -11.1781403985      -21.0608857466      -25.8301546635  SOLV      215             0.0000000000
       759       226  TIP3      H2            -12.5314903985      -20.8242657466      -26.4660146635  SOLV      215             0.0000000000
       760       227  TIP3      OH2            -8.2719603985      -16.8900757466      -25.7297646635  SOLV      216             0.0000000000
       761       227  TIP3      H1             -8.7860103985      -17.0158557466      -24.9321646635  SOLV      216             0.0000000000
       762       227  TIP3      H2             -8.4274903985      -15.9777657466      -25.9741446635  SOLV      216             0.0000000000
       763       228  TIP3      OH2           -16.1702203985      -15.4021857466      -28.8628946635  SOLV      217             0.0000000000
       764       228  TIP3      H1            -16.8120103985      -15.4424557466      -28.1538846635  SOLV      217             0.0000000000
       765       228  TIP3      H2            -16.1330203985      -14.4757157466      -29.1005946635  SOLV      217             0.0000000000
       766       229  TIP3      OH2           -11.5356003985      -14.5895057466      -23.6457446635  SOLV      218             0.0000000000
       767       229  TIP3      H1            -12.0982203985      -15.2943457466      -23.3249646635  SOLV      218             0.0000000000
       768       229  TIP3      H2            -10.7092603985      -14.7103157466      -23.1779846635  SOLV      218             0.0000000000
       769       230  TIP3      OH2            -9.6329903985      -15.3191057466      -32.3198446635  SOLV      219             0.0000000000
       770       230  TIP3      H1             -9.8285403985      -14.7134257466      -33.0347846635  SOLV      219             0.0000000000
       771       230  TIP3      H2             -9.4517303985      -16.1525857466      -32.7542146635  SOLV      219             0.0000000000
       772       231  TIP3      OH2           -18.4201703985      -15.0818357466      -26.9956946635  SOLV      220             0.0000000000
       773       231  TIP3      H1            -18.4582303985      -14.6816757466      -26.1269846635  SOLV      220             0.0000000000
       774       231  TIP3      H2            -18.9110603985      -15.8985957466      -26.9054046635  SOLV      220             0.0000000000
       775       232  TIP3      OH2           -10.3690703985      -13.6809757466      -27.6486046635  SOLV      221             0.0000000000
       776       232  TIP3      H1            -10.0455903985      -14.3120057466      -28.2915546635  SOLV      221             0.0000000000
       777       232  TIP3      H2            -10.8091403985      -14.2157557466      -26.9878646635  SOLV      221             0.0000000000
       778       233  TIP3      OH2            -9.1865903985      -18.5187957466      -29.6003046635  SOLV      222             0.0000000000
       779       233  TIP3      H1             -9.8634303985      -18.3874857466      -28.9363346635  SOLV      222             0.0000000000
       780       233  TIP3      H2             -9.6721003985      -18.6738457466      -30.4105346635  SOLV      222             0.0000000000
       781       234  TIP3      OH2            -5.8990803985       -2.8472557466      -23.3235446635  SOLV      223             0.0000000000
       782       234  TIP3      H1             -5.6992103985       -2.4230657466      -24.1580146635  SOLV      223             0.0000000000
       783       234  TIP3      H2             -5.2437103985       -2.5034357466      -22.7165046635  SOLV      223             0.0000000000
       784       235  TIP3      OH2           -18.3011003985      -10.3731257466      -23.7154946635  SOLV      224             0.0000000000
       785       235  TIP3      H1            -17.5688603985      -10.1185357466      -23.1540446635  SOLV      224             0.0000000000
       786       235  TIP3      H2            -19.0812303985      -10.1685857466      -23.1999546635  SOLV      224             0.0000000000
       787       236  TIP3      OH2           -12.2718103985      -14.9661257466      -30.9775246635  SOLV      225             0.0000000000
       788       236  TIP3      H1            -11.7074703985      -15.5124657466      -31.5245646635  SOLV      225             0.0000000000
       789       236  TIP3      H2            -12.4194703985      -15.4879357466      -30.1887646635  SOLV      225             0.0000000000
       790       237  TIP3      OH2           -13.6452203985      -16.5775157466      -28.5634846635  SOLV      226             0.0000000000
       791       237  TIP3      H1            -14.4806903985      -16.1235657466      -28.4532446635  SOLV      226             0.0000000000
       792       237  TIP3      H2            -13.1211603985      -16.3016657466      -27.8114946635  SOLV      226             0.0000000000
       793       238  TIP3      OH2            -5.9510703985      -11.2319257466      -28.0920846635  SOLV      227             0.0000000000
       794       238  TIP3      H1             -5.3091903985      -10.7752957466      -28.6358646635  SOLV      227             0.0000000000
       795       238  TIP3      H2             -6.7813803985      -11.1186857466      -28.5546746635  SOLV      227             0.0000000000
       796       239  TIP3      OH2           -11.5817503985      -10.1804157466      -25.6419346635  SOLV      228             0.0000000000
       797       239  TIP3      H1            -11.9271403985      -10.5621757466      -24.8349746635  SOLV      228             0.0000000000
       798       239  TIP3      H2            -11.7817403985       -9.2470557466      -25.5706446635  SOLV      228             0.0000000000
       799       240  TIP3      OH2           -20.9681603985      -12.6090557466      -25.7942046635  SOLV      229             0.0000000000
       800       240  TIP3      H1            -20.7453003985      -13.0270957466      -24.9624546635  SOLV      229             0.0000000000
       801       240  TIP3      H2            -21.5701503985      -13.2215557466      -26.2169246635  SOLV      229             0.0000000000
       802       241  TIP3      OH2           -13.9516703985      -13.0920657466      -23.5812346635  SOLV      230             0.0000000000
       803       241  TIP3      H1            -14.2475903985      -13.2577657466      -24.4763246635  SOLV      230             0.0000000000
       804       241  TIP3      H2            -13.0201503985      -13.3120357466      -23.5918446635  SOLV      230             0.0000000000
       805       242  TIP3      OH2            -9.3313903985       -7.7188657466      -25.6914346635  SOLV      231             0.0000000000
       806       242  TIP3      H1            -10.2319603985       -7.5356057466      -25.9590446635  SOLV      231             0.0000000000
       807       242  TIP3      H2             -9.2972803985       -7.4599357466      -24.7705546635  SOLV      231             0.0000000000
       808       243  TIP3      OH2            -3.6368603985       -9.6739057466      -24.4870246635  SOLV      232             0.0000000000
       809       243  TIP3      H1             -4.4880103985       -9.4355257466      -24.8543846635  SOLV      232             0.0000000000
       810       243  TIP3      H2             -3.0465203985       -9.6905857466      -25.2403146635  SOLV      232             0.0000000000
       811       244  TIP3      OH2            -5.3048903985       -6.6880357466      -36.8589646635  SOLV      233             0.0000000000
       812       244  TIP3      H1             -5.6777803985       -7.5136557466      -36.5499046635  SOLV      233             0.0000000000
       813       244  TIP3      H2             -5.0275403985       -6.8710957466      -37.7566246635  SOLV      233             0.0000000000
       814       245  TIP3      OH2            -8.1445003985      -11.8800857466      -29.8377746635  SOLV      234             0.0000000000
       815       245  TIP3      H1             -9.0728103985      -12.1118957466      -29.8648446635  SOLV      234             0.0000000000
       816       245  TIP3      H2             -7.6933903985      -12.6571057466      -30.1678946635  SOLV      234             0.0000000000
       817       246  TIP3      OH2           -13.6593003985       -5.7395757466      -27.8133646635  SOLV      235             0.0000000000
       818       246  TIP3      H1            -13.2968303985       -4.8850157466      -28.0469246635  SOLV      235             0.0000000000
       819       246  TIP3      H2            -13.1277803985       -6.0314157466      -27.0727346635  SOLV      235             0.0000000000
       820       247  TIP3      OH2           -10.1152203985       -9.6405057466      -28.1128046635  SOLV      236             0.0000000000
       821       247  TIP3      H1            -10.5410903985       -9.8683357466      -27.2864046635  SOLV      236             0.0000000000
       822       247  TIP3      H2             -9.5346403985      -10.3793257466      -28.2952746635  SOLV      236             0.0000000000
       823       248  TIP3      OH2            -7.4568003985       -5.0885557466      -25.6433246635  SOLV      237             0.0000000000
       824       248  TIP3      H1             -8.0584803985       -5.6442657466      -26.1386946635  SOLV      237             0.0000000000
       825       248  TIP3      H2             -7.1754303985       -4.4215757466      -26.2695846635  SOLV      237             0.0000000000
       826       249  TIP3      OH2            -3.4088903985       -4.2322057466      -38.8378846635  SOLV      238             0.0000000000
       827       249  TIP3      H1             -2.6651003985       -3.6461557466      -38.9777246635  SOLV      238             0.0000000000
       828       249  TIP3      H2             -4.1030803985       -3.6636257466      -38.5046446635  SOLV      238             0.0000000000
       829       250  TIP3      OH2           -19.3342103985      -17.8557857466      -26.2360646635  SOLV      239             0.0000000000
       830       250  TIP3      H1            -20.2269803985      -17.5172457466      -26.3036646635  SOLV      239             0.0000000000
       831       250  TIP3      H2            -19.4329303985      -18.7111757466      -25.8179846635  SOLV      239             0.0000000000
       832       251  TIP3      OH2            -7.0464003985      -10.0392557466      -36.8121146635  SOLV      240             0.0000000000
       833       251  TIP3      H1             -7.3236403985      -10.7673257466      -36.2560046635  SOLV      240             0.0000000000
       834       251  TIP3      H2             -6.1191003985       -9.9200557466      -36.6068546635  SOLV      240             0.0000000000
       835       252  TIP3      OH2           -19.6830103985       -6.0513457466      -27.8011246635  SOLV      241             0.0000000000
       836       252  TIP3      H1            -19.4659803985       -6.9831057466      -27.8321546635  SOLV      241             0.0000000000
       837       252  TIP3      H2            -19.4366603985       -5.7768457466      -26.9178446635  SOLV      241             0.0000000000
       838       253  TIP3      OH2           -10.5998703985      -18.1147557466      -27.3462046635  SOLV      242             0.0000000000
       839       253  TIP3      H1             -9.9010803985      -18.0408857466      -26.6962346635  SOLV      242             0.0000000000
       840       253  TIP3      H2            -10.9807303985      -18.9792557466      -27.1919146635  SOLV      242             0.0000000000
       841       254  TIP3      OH2           -12.0797503985      -15.7484357466      -26.2294746635  SOLV      243             0.0000000000
       842       254  TIP3      H1            -11.9607203985      -15.1748957466      -25.4724346635  SOLV      243             0.0000000000
       843       254  TIP3      H2            -11.4242903985      -16.4364957466      -26.1146946635  SOLV      243             0.0000000000
       844       255  TIP3      OH2            -5.8751703985      -17.8414057466      -25.3945046635  SOLV      244             0.0000000000
       845       255  TIP3      H1             -6.7915903985      -17.5792357466      -25.4821346635  SOLV      244             0.0000000000
       846       255  TIP3      H2             -5.5396703985      -17.8445057466      -26.2909746635  SOLV      244             0.0000000000
       847       256  TIP3      OH2            -7.2730703985      -14.0913057466      -31.2987746635  SOLV      245             0.0000000000
       848       256  TIP3      H1             -8.0706303985      -14.5062857466      -31.6272746635  SOLV      245             0.0000000000
       849       256  TIP3      H2             -6.8279603985      -14.7819357466      -30.8077246635  SOLV      245             0.0000000000
       850       257  TIP3      OH2            -6.1866103985       -4.8350557466      -29.6764246635  SOLV      246             0.0000000000
       851       257  TIP3      H1             -6.3421803985       -4.1566157466      -30.3334946635  SOLV      246             0.0000000000
       852       257  TIP3      H2             -5.2539703985       -4.7631257466      -29.4733646635  SOLV      246             0.0000000000
       853       258  TIP3      OH2           -20.4726703985       -4.1642057466      -23.4489046635  SOLV      247             0.0000000000
       854       258  TIP3      H1            -19.9324503985       -4.3808057466      -22.6889846635  SOLV      247             0.0000000000
       855       258  TIP3      H2            -20.9538703985       -4.9696057466      -23.6386546635  SOLV      247             0.0000000000
       856       259  TIP3      OH2           -15.8753303985       -5.2447657466      -21.8284846635  SOLV      248             0.0000000000
       857       259  TIP3      H1            -15.1076103985       -5.7036857466      -21.4875646635  SOLV      248             0.0000000000
       858       259  TIP3      H2            -15.8967103985       -5.4707857466      -22.7583646635  SOLV      248             0.0000000000
       859       260  TIP3      OH2            -9.2984603985       -6.8646557466      -23.0993346635  SOLV      249             0.0000000000
       860       260  TIP3      H1             -9.6495103985       -7.7213557466      -22.8562946635  SOLV      249             0.0000000000
       861       260  TIP3      H2             -8.5721403985       -6.7219857466      -22.4924346635  SOLV      249             0.0000000000
       862       261  TIP3      OH2           -13.9101103985      -10.3839857466      -23.0618346635  SOLV      250             0.0000000000
       863       261  TIP3      H1            -14.2387303985      -10.1131757466      -23.9190946635  SOLV      250             0.0000000000
       864       261  TIP3      H2            -13.7582903985      -11.3250057466      -23.1493346635  SOLV      250             0.0000000000
       865       262  TIP3      OH2            -8.1755903985      -10.4682557466      -25.6786046635  SOLV      251             0.0000000000
       866       262  TIP3      H1             -7.4301103985       -9.8798857466      -25.7982046635  SOLV      251             0.0000000000
       867       262  TIP3      H2             -8.9329103985       -9.8862857466      -25.6152946635  SOLV      251             0.0000000000
       868       263  TIP3      OH2           -19.7330703985      -13.1534657466      -23.0745446635  SOLV      252             0.0000000000
       869       263  TIP3      H1            -19.3249503985      -14.0108057466      -23.1954846635  SOLV      252             0.0000000000
       870       263  TIP3      H2            -19.9933103985      -13.1393357466      -22.1535146635  SOLV      252             0.0000000000
       871       264  TIP3      OH2           -15.7860403985      -14.1448957466      -25.7002546635  SOLV      253             0.0000000000
       872       264  TIP3      H1            -16.4044303985      -13.4702357466      -25.4197846635  SOLV      253             0.0000000000
       873       264  TIP3      H2            -15.4419203985      -13.8235057466      -26.5336346635  SOLV      253             0.0000000000
       874       265  TIP3      OH2           -10.7662203985      -11.6733657466      -22.4227746635  SOLV      254             0.0000000000
       875       265  TIP3      H1             -9.8131003985      -11.5894557466      -22.4501746635  SOLV      254             0.0000000000
       876       265  TIP3      H2            -10.9267603985      -12.3851857466      -21.8032846635  SOLV      254             0.0000000000
       877       266  TIP3      OH2           -15.4466703985      -16.7898157466      -24.6179446635  SOLV      255             0.0000000000
       878       266  TIP3      H1            -15.2965803985      -17.5186857466      -25.2199746635  SOLV      255             0.0000000000
       879       266  TIP3      H2            -15.4444303985      -16.0126457466      -25.1767246635  SOLV      255             0.0000000000
       880       267  TIP3      OH2           -15.0341003985      -18.4202357466      -27.1252046635  SOLV      256             0.0000000000
       881       267  TIP3      H1            -14.4983503985      -17.9685657466      -27.7772746635  SOLV      256             0.0000000000
       882       267  TIP3      H2            -15.8861403985      -18.5282557466      -27.5477946635  SOLV      256             0.0000000000
       883       268  TIP3      OH2           -13.4522603985      -12.9806157466      -26.8856846635  SOLV      257             0.0000000000
       884       268  TIP3      H1            -12.7017803985      -13.1368657466      -27.4589046635  SOLV      257             0.0000000000
       885       268  TIP3      H2            -13.7914303985      -12.1289557466      -27.1611346635  SOLV      257             0.0000000000
       886       269  TIP3      OH2            -9.0366403985      -15.1654357466      -21.8571546635  SOLV      258             0.0000000000
       887       269  TIP3      H1             -8.8445103985      -16.0964957466      -21.9687046635  SOLV      258             0.0000000000
       888       269  TIP3      H2             -8.1790103985      -14.7404857466      -21.8676146635  SOLV      258             0.0000000000
       889       270  TIP3      OH2            -7.7199203985      -12.3769157466      -23.7798846635  SOLV      259             0.0000000000
       890       270  TIP3      H1             -8.0014203985      -11.6674557466      -24.3575046635  SOLV      259             0.0000000000
       891       270  TIP3      H2             -6.7774903985      -12.4496157466      -23.9307646635  SOLV      259             0.0000000000
       892       271  TIP3      OH2           -16.9680403985      -15.5914657466      -22.7063846635  SOLV      260             0.0000000000
       893       271  TIP3      H1            -17.7351403985      -16.1239857466      -22.9166246635  SOLV      260             0.0000000000
       894       271  TIP3      H2            -16.2891403985      -15.9014257466      -23.3057546635  SOLV      260             0.0000000000
       895       272  TIP3      OH2           -14.2285503985      -20.9636657466      -26.6938446635  SOLV      261             0.0000000000
       896       272  TIP3      H1            -14.3265903985      -20.0173457466      -26.7992246635  SOLV      261             0.0000000000
       897       272  TIP3      H2            -14.9709303985      -21.3362857466      -27.1694946635  SOLV      261             0.0000000000
       898       273  TIP3      OH2           -12.9645003985      -16.6421257466      -23.1300046635  SOLV      262             0.0000000000
       899       273  TIP3      H1            -13.1999603985      -16.8614557466      -22.2285146635  SOLV      262             0.0000000000
       900       273  TIP3      H2            -13.7478103985      -16.8490057466      -23.6397546635  SOLV      262             0.0000000000
       901       274  TIP3      OH2           -10.2488403985      -17.5147757466      -24.0546546635  SOLV      263             0.0000000000
       902       274  TIP3      H1            -11.1963003985      -17.4828057466      -23.9223246635  SOLV      263             0.0000000000
       903       274  TIP3      H2             -9.9361703985      -18.1400657466      -23.4008346635  SOLV      263             0.0000000000
       904       275  TIP3      OH2            -8.6146903985      -18.8806657466      -22.0494646635  SOLV      264             0.0000000000
       905       275  TIP3      H1             -8.7115103985      -19.8329357466      -22.0552746635  SOLV      264             0.0000000000
       906       275  TIP3      H2             -8.9363803985      -18.6119857466      -21.1889146635  SOLV      264             0.0000000000
       907       276  TIP3      OH2           -18.7877603985      -17.6710857466      -23.0019146635  SOLV      265             0.0000000000
       908       276  TIP3      H1            -18.5760203985      -18.3774757466      -23.6121646635  SOLV      265             0.0000000000
       909       276  TIP3      H2            -18.8990103985      -18.1084857466      -22.1577946635  SOLV      265             0.0000000000
       910       277  TIP3      OH2           -14.0067403985      -21.6699257466      -24.0225646635  SOLV      266             0.0000000000
       911       277  TIP3      H1            -13.2949003985      -22.3097057466      -24.0366546635  SOLV      266             0.0000000000
       912       277  TIP3      H2            -14.1077003985      -21.4030957466      -24.9362546635  SOLV      266             0.0000000000
       913       278  TIP3      OH2           -13.6529903985      -19.9870857466      -21.9689346635  SOLV      267             0.0000000000
       914       278  TIP3      H1            -13.7847703985      -20.4627057466      -22.7890846635  SOLV      267             0.0000000000
       915       278  TIP3      H2            -14.2522503985      -19.2427257466      -22.0242246635  SOLV      267             0.0000000000
       916       279  TIP3      OH2            -3.4708103985       -4.1844857466      -29.4472346635  SOLV      268             0.0000000000
       917       279  TIP3      H1             -3.4921403985       -3.9996457466      -28.5082946635  SOLV      268             0.0000000000
       918       279  TIP3      H2             -2.7801903985       -3.6160857466      -29.7880946635  SOLV      268             0.0000000000
       919       280  TIP3      OH2            -3.9075203985       -4.6173757466      -26.5253246635  SOLV      269             0.0000000000
       920       280  TIP3      H1             -4.3946503985       -5.3529657466      -26.8965846635  SOLV      269             0.0000000000
       921       280  TIP3      H2             -3.3582503985       -5.0109857466      -25.8473846635  SOLV      269             0.0000000000
       922       281  TIP3      OH2            -5.4567903985       -8.8275657466      -21.8872946635  SOLV      270             0.0000000000
       923       281  TIP3      H1             -6.3226803985       -8.9325957466      -21.4930646635  SOLV      270             0.0000000000
       924       281  TIP3      H2             -5.0802003985       -8.0692357466      -21.4408246635  SOLV      270             0.0000000000
       925       282  TIP3      OH2            -4.1558203985      -10.5711957466      -36.3730446635  SOLV      271             0.0000000000
       926       282  TIP3      H1             -3.3056803985      -10.1501057466      -36.2458846635  SOLV      271             0.0000000000
       927       282  TIP3      H2             -4.1503103985      -11.3111857466      -35.7659046635  SOLV      271             0.0000000000
       928       283  TIP3      OH2            -3.7612603985      -12.5174557466      -34.5494746635  SOLV      272             0.0000000000
       929       283  TIP3      H1             -4.4878003985      -12.9971957466      -34.1517146635  SOLV      272             0.0000000000
       930       283  TIP3      H2             -3.1799303985      -12.3119857466      -33.8173146635  SOLV      272             0.0000000000
       931       284  TIP3      OH2            -4.0021403985       -9.7327057466      -29.6017146635  SOLV      273             0.0000000000
       932       284  TIP3      H1             -3.1687203985      -10.1107057466      -29.8823546635  SOLV      273             0.0000000000
       933       284  TIP3      H2             -3.8901103985       -8.7895857466      -29.7208046635  SOLV      273             0.0000000000
       934       285  TIP3      OH2            -5.5159103985       -6.8549557466      -27.2948746635  SOLV      274             0.0000000000
       935       285  TIP3      H1             -6.1633803985       -6.5298057466      -26.6693546635  SOLV      274             0.0000000000
       936       285  TIP3      H2             -6.0335103985       -7.2951857466      -27.9690446635  SOLV      274             0.0000000000
       937       286  TIP3      OH2            -5.9745803985      -13.9968057466      -33.9866046635  SOLV      275             0.0000000000
       938       286  TIP3      H1             -6.1247003985      -14.9419457466      -34.0068246635  SOLV      275             0.0000000000
       939       286  TIP3      H2             -6.3281303985      -13.7156657466      -33.1426946635  SOLV      275             0.0000000000
       940       287  TIP3      OH2            -5.1182903985      -12.0264757466      -24.3477746635  SOLV      276             0.0000000000
       941       287  TIP3      H1             -4.5355603985      -12.7612457466      -24.1560546635  SOLV      276             0.0000000000
       942       287  TIP3      H2             -4.5543603985      -11.2544457466      -24.3011946635  SOLV      276             0.0000000000
       943       288  TIP3      OH2            -3.6215803985      -14.1238957466      -23.6632346635  SOLV      277             0.0000000000
       944       288  TIP3      H1             -4.4849103985      -14.5026857466      -23.8287646635  SOLV      277             0.0000000000
       945       288  TIP3      H2             -3.0172103985      -14.8624157466      -23.7376546635  SOLV      277             0.0000000000
       946       289  TIP3      OH2            -5.6522703985      -15.8324857466      -30.0882046635  SOLV      278             0.0000000000
       947       289  TIP3      H1             -4.7194703985      -15.6204957466      -30.1226046635  SOLV      278             0.0000000000
       948       289  TIP3      H2             -5.8875203985      -15.7312757466      -29.1659046635  SOLV      278             0.0000000000
       949       290  TIP3      OH2            -5.6230803985      -15.0959557466      -27.3122646635  SOLV      279             0.0000000000
       950       290  TIP3      H1             -6.4659503985      -14.8279157466      -26.9462846635  SOLV      279             0.0000000000
       951       290  TIP3      H2             -5.1806503985      -14.2737657466      -27.5231546635  SOLV      279             0.0000000000
       952       291  TIP3      OH2           -21.3418603985      -16.6480857466      -23.8353446635  SOLV      280             0.0000000000
       953       291  TIP3      H1            -20.4223703985      -16.7702557466      -23.5990346635  SOLV      280             0.0000000000
       954       291  TIP3      H2            -21.7914103985      -17.3981157466      -23.4459946635  SOLV      280             0.0000000000
       955       292  TIP3      OH2            -3.3399203985      -21.1159357466      -21.9587646635  SOLV      281             0.0000000000
       956       292  TIP3      H1             -2.9902203985      -21.7695857466      -22.5642946635  SOLV      281             0.0000000000
       957       292  TIP3      H2             -3.1929703985      -20.2785257466      -22.3985046635  SOLV      281             0.0000000000
       958       293  TIP3      OH2            -3.8202003985      -19.0064757466      -23.6096346635  SOLV      282             0.0000000000
       959       293  TIP3      H1             -4.7376303985      -18.7357657466      -23.6452846635  SOLV      282             0.0000000000
       960       293  TIP3      H2             -3.6972603985      -19.5416357466      -24.3936646635  SOLV      282             0.0000000000
       961       294  TIP3      OH2            -6.7322103985       -4.0945457466      -33.8750546635  SOLV      283             0.0000000000
       962       294  TIP3      H1             -6.0799203985       -4.4423357466      -34.4831446635  SOLV      283             0.0000000000
       963       294  TIP3      H2             -6.2218303985       -3.6062257466      -33.2290846635  SOLV      283             0.0000000000
       964       295  TIP3      OH2           -19.3474603985       -7.1654057466      -23.3319646635  SOLV      284             0.0000000000
       965       295  TIP3      H1            -20.1682103985       -6.9907557466      -23.7924946635  SOLV      284             0.0000000000
       966       295  TIP3      H2            -19.5996803985       -7.2389357466      -22.4115246635  SOLV      284             0.0000000000
       967       296  TIP3      OH2           -16.3931703985       -6.1912857466      -27.0735646635  SOLV      285             0.0000000000
       968       296  TIP3      H1            -16.8180603985       -5.3814357466      -27.3561046635  SOLV      285             0.0000000000
       969       296  TIP3      H2            -15.4888903985       -6.1058757466      -27.3755846635  SOLV      285             0.0000000000
       970       297  TIP3      OH2           -12.0820303985       -4.7922857466      -24.1141946635  SOLV      286             0.0000000000
       971       297  TIP3      H1            -11.8972803985       -5.1256757466      -23.2361646635  SOLV      286             0.0000000000
       972       297  TIP3      H2            -11.2355803985       -4.4824257466      -24.4362746635  SOLV      286             0.0000000000
       973       298  TIP3      OH2            -9.7369903985       -3.5063957466      -24.8700546635  SOLV      287             0.0000000000
       974       298  TIP3      H1             -9.0601003985       -4.1391657466      -25.1101346635  SOLV      287             0.0000000000
       975       298  TIP3      H2             -9.4151103985       -3.1053457466      -24.0627246635  SOLV      287             0.0000000000
       976       299  TIP3      OH2            -4.8196103985      -20.9168457466      -25.7905546635  SOLV      288             0.0000000000
       977       299  TIP3      H1             -5.6322603985      -20.5918157466      -26.1780846635  SOLV      288             0.0000000000
       978       299  TIP3      H2             -4.5867603985      -21.6769957466      -26.3236446635  SOLV      288             0.0000000000
       979       300  TIP3      OH2           -18.9915003985       -2.9348957466      -27.0260346635  SOLV      289             0.0000000000
       980       300  TIP3      H1            -19.7118603985       -2.4947957466      -27.4772646635  SOLV      289             0.0000000000
       981       300  TIP3      H2            -19.3571003985       -3.1854257466      -26.1776346635  SOLV      289             0.0000000000
       982       301  TIP3      OH2           -16.5242403985       -3.3345057466      -27.9963146635  SOLV      290             0.0000000000
       983       301  TIP3      H1            -17.3890203985       -3.2626557466      -27.5923046635  SOLV      290             0.0000000000
       984       301  TIP3      H2            -16.5793403985       -2.7877757466      -28.7800646635  SOLV      290             0.0000000000
       985       302  TIP3      OH2           -11.8136803985       -3.4466157466      -28.8207146635  SOLV      291             0.0000000000
       986       302  TIP3      H1            -12.2702803985       -2.9176457466      -29.4748746635  SOLV      291             0.0000000000
       987       302  TIP3      H2            -11.6508803985       -2.8434757466      -28.0954846635  SOLV      291             0.0000000000
       988       303  TIP3      OH2            -9.4860503985       -4.5686557466      -27.8756846635  SOLV      292             0.0000000000
       989       303  TIP3      H1            -10.3906803985       -4.4036357466      -28.1414746635  SOLV      292             0.0000000000
       990       303  TIP3      H2             -9.0571903985       -3.7154357466      -27.9413446635  SOLV      292             0.0000000000
       991       304  TIP3      OH2            -6.8818603985       -2.9987457466      -27.5809046635  SOLV      293             0.0000000000
       992       304  TIP3      H1             -7.0636603985       -2.0828557466      -27.7914146635  SOLV      293             0.0000000000
       993       304  TIP3      H2             -6.7050803985       -3.4090357466      -28.4274446635  SOLV      293             0.0000000000
       994       305  TIP3      OH2           -19.5766903985       -4.3116457466      -30.1158546635  SOLV      294             0.0000000000
       995       305  TIP3      H1            -19.5950903985       -4.7371357466      -29.2586246635  SOLV      294             0.0000000000
       996       305  TIP3      H2            -18.7719003985       -4.6301457466      -30.5246346635  SOLV      294             0.0000000000
       997       306  TIP3      OH2           -17.4353803985       -5.6017757466      -31.4608646635  SOLV      295             0.0000000000
       998       306  TIP3      H1            -17.6543103985       -6.5180357466      -31.2912646635  SOLV      295             0.0000000000
       999       306  TIP3      H2            -16.6111603985       -5.4617357466      -30.9947246635  SOLV      295             0.0000000000
      1000       307  TIP3      OH2           -14.8981303985       -5.1318457466      -30.6120646635  SOLV      296             0.0000000000
      1001       307  TIP3      H1            -14.6855603985       -6.0199457466      -30.8989746635  SOLV      296             0.0000000000
      1002       307  TIP3      H2            -14.8336203985       -5.1660757466      -29.6576646635  SOLV      296             0.0000000000
      1003       308  TIP3      OH2            -6.2470403985      -21.3603857466      -31.3550246635  SOLV      297             0.0000000000
      1004       308  TIP3      H1             -5.6432803985      -20.8128457466      -31.8569246635  SOLV      297             0.0000000000
      1005       308  TIP3      H2             -7.1168403985      -21.0413457466      -31.5956146635  SOLV      297             0.0000000000
      1006       309  TIP3      OH2            -4.5200003985      -20.2215157466      -33.0219346635  SOLV      298             0.0000000000
      1007       309  TIP3      H1             -3.9082503985      -20.7359457466      -33.5485746635  SOLV      298             0.0000000000
      1008       309  TIP3      H2             -4.1376603985      -19.3443057466      -32.9984946635  SOLV      298             0.0000000000
      1009       310  TIP3      OH2            -4.7524103985       -4.3152057466      -35.8678946635  SOLV      299             0.0000000000
      1010       310  TIP3      H1             -4.9467003985       -5.0629957466      -36.4329346635  SOLV      299             0.0000000000
      1011       310  TIP3      H2             -4.7914003985       -3.5571957466      -36.4511046635  SOLV      299             0.0000000000
      1012       311  TIP3      OH2            -8.7109003985      -21.6365957466      -22.4101346635  SOLV      300             0.0000000000
      1013       311  TIP3      H1             -8.6341803985      -22.0625257466      -21.5563646635  SOLV      300             0.0000000000
      1014       311  TIP3      H2             -7.8172403985      -21.6231257466      -22.7527846635  SOLV      300             0.0000000000
      1015       312  TIP3      OH2            -5.5347903985       -5.5639657466      -23.7177146635  SOLV      301             0.0000000000
      1016       312  TIP3      H1             -6.3166003985       -5.7501657466      -24.2376546635  SOLV      301             0.0000000000
      1017       312  TIP3      H2             -5.6068003985       -4.6345357466      -23.5004646635  SOLV      301             0.0000000000
      1018       313  TIP3      OH2             8.8712496015      -11.6775257466      -33.6869946635  SOLV      302             0.0000000000
      1019       313  TIP3      H1              8.9603596015      -10.7337057466      -33.8192846635  SOLV      302             0.0000000000
      1020       313  TIP3      H2              8.2330096015      -11.9528857466      -34.3450546635  SOLV      302             0.0000000000
      1021       314  TIP3      OH2             7.8043796015      -12.4224557466      -30.2681746635  SOLV      303             0.0000000000
      1022       314  TIP3      H1              7.7661296015      -13.0688257466      -29.5632146635  SOLV      303             0.0000000000
      1023       314  TIP3      H2              7.4820296015      -12.8890157466      -31.0393046635  SOLV      303             0.0000000000
      1024       315  TIP3      OH2             0.1728796015      -12.8082457466      -28.6751846635  SOLV      304             0.0000000000
      1025       315  TIP3      H1              0.2140896015      -13.4339157466      -27.9519446635  SOLV      304             0.0000000000
      1026       315  TIP3      H2              0.8756496015      -12.1843857466      -28.4931446635  SOLV      304             0.0000000000
      1027       316  TIP3      OH2            11.5103996015       -9.4834157466      -31.9666646635  SOLV      305             0.0000000000
      1028       316  TIP3      H1             11.0696696015      -10.2038157466      -31.5161046635  SOLV      305             0.0000000000
      1029       316  TIP3      H2             11.4973696015       -8.7626957466      -31.3368946635  SOLV      305             0.0000000000
      1030       317  TIP3      OH2             1.0961896015       -8.3583557466      -30.1402746635  SOLV      306             0.0000000000
      1031       317  TIP3      H1              0.7267096015       -9.1603057466      -30.5098446635  SOLV      306             0.0000000000
      1032       317  TIP3      H2              2.0372996015       -8.5268657466      -30.0939346635  SOLV      306             0.0000000000
      1033       318  TIP3      OH2            -2.2937603985      -14.6980957466      -34.7473946635  SOLV      307             0.0000000000
      1034       318  TIP3      H1             -2.7414203985      -13.8522257466      -34.7657446635  SOLV      307             0.0000000000
      1035       318  TIP3      H2             -2.8546403985      -15.2776757466      -35.2628846635  SOLV      307             0.0000000000
      1036       319  TIP3      OH2            -1.5831503985      -12.5361357466      -32.6215946635  SOLV      308             0.0000000000
      1037       319  TIP3      H1             -1.3698003985      -13.3059757466      -32.0942946635  SOLV      308             0.0000000000
      1038       319  TIP3      H2             -0.8453903985      -12.4464657466      -33.2248346635  SOLV      308             0.0000000000
      1039       320  TIP3      OH2             8.6219496015       -4.3792457466      -31.7546246635  SOLV      309             0.0000000000
      1040       320  TIP3      H1              9.2415896015       -5.0557757466      -32.0277046635  SOLV      309             0.0000000000
      1041       320  TIP3      H2              8.4136896015       -4.5971657466      -30.8461346635  SOLV      309             0.0000000000
      1042       321  TIP3      OH2             6.1938196015       -9.9903157466      -29.8620746635  SOLV      310             0.0000000000
      1043       321  TIP3      H1              6.4976096015      -10.6761757466      -30.4566646635  SOLV      310             0.0000000000
      1044       321  TIP3      H2              6.9152196015       -9.8714457466      -29.2442746635  SOLV      310             0.0000000000
      1045       322  TIP3      OH2            14.8567996015      -18.3887857466      -29.0014546635  SOLV      311             0.0000000000
      1046       322  TIP3      H1             14.9060196015      -17.7786657466      -28.2655446635  SOLV      311             0.0000000000
      1047       322  TIP3      H2             15.2823096015      -17.9276957466      -29.7243446635  SOLV      311             0.0000000000
      1048       323  TIP3      OH2             9.3345196015      -15.5960757466      -29.5345946635  SOLV      312             0.0000000000
      1049       323  TIP3      H1              9.4771096015      -16.5423757466      -29.5144346635  SOLV      312             0.0000000000
      1050       323  TIP3      H2              9.2284196015      -15.3890957466      -30.4631046635  SOLV      312             0.0000000000
      1051       324  TIP3      OH2             2.4893496015      -17.4944357466      -32.2621146635  SOLV      313             0.0000000000
      1052       324  TIP3      H1              2.5324596015      -16.6345857466      -32.6804846635  SOLV      313             0.0000000000
      1053       324  TIP3      H2              2.0317596015      -18.0469657466      -32.8957946635  SOLV      313             0.0000000000
      1054       325  TIP3      OH2            10.2116196015      -17.3638757466      -33.8612846635  SOLV      314             0.0000000000
      1055       325  TIP3      H1             10.8580496015      -17.6925557466      -33.2365246635  SOLV      314             0.0000000000
      1056       325  TIP3      H2             10.7215596015      -16.8459757466      -34.4841446635  SOLV      314             0.0000000000
      1057       326  TIP3      OH2            -0.8905003985      -15.0978557466      -31.4999746635  SOLV      315             0.0000000000
      1058       326  TIP3      H1             -0.2368403985      -15.6476857466      -31.0679646635  SOLV      315             0.0000000000
      1059       326  TIP3      H2             -0.8665703985      -15.3719557466      -32.4167746635  SOLV      315             0.0000000000
      1060       327  TIP3      OH2             4.2659496015      -13.5477257466      -32.2848246635  SOLV      316             0.0000000000
      1061       327  TIP3      H1              4.8820496015      -14.0741857466      -31.7754246635  SOLV      316             0.0000000000
      1062       327  TIP3      H2              3.6798296015      -14.1878557466      -32.6884646635  SOLV      316             0.0000000000
      1063       328  TIP3      OH2            15.2482596015      -16.9108657466      -26.7654746635  SOLV      317             0.0000000000
      1064       328  TIP3      H1             14.5597196015      -16.2527957466      -26.8608146635  SOLV      317             0.0000000000
      1065       328  TIP3      H2             15.2637196015      -17.1080757466      -25.8289346635  SOLV      317             0.0000000000
      1066       329  TIP3      OH2             1.2995396015      -18.5765957466      -28.1880346635  SOLV      318             0.0000000000
      1067       329  TIP3      H1              1.0807096015      -18.0465357466      -28.9544346635  SOLV      318             0.0000000000
      1068       329  TIP3      H2              0.6316296015      -18.3500457466      -27.5408946635  SOLV      318             0.0000000000
      1069       330  TIP3      OH2             8.6685196015       -9.0764857466      -34.6441246635  SOLV      319             0.0000000000
      1070       330  TIP3      H1              8.3730296015       -9.3992557466      -35.4954346635  SOLV      319             0.0000000000
      1071       330  TIP3      H2              8.3442996015       -8.1768157466      -34.6028646635  SOLV      319             0.0000000000
      1072       331  TIP3      OH2             3.8686796015      -10.9010257466      -27.9006646635  SOLV      320             0.0000000000
      1073       331  TIP3      H1              3.1285896015      -10.3028757466      -27.7971446635  SOLV      320             0.0000000000
      1074       331  TIP3      H2              4.5826296015      -10.3470657466      -28.2163046635  SOLV      320             0.0000000000
      1075       332  TIP3      OH2            11.9754596015      -18.0729457466      -31.8806946635  SOLV      321             0.0000000000
      1076       332  TIP3      H1             11.7602596015      -18.8386057466      -31.3480946635  SOLV      321             0.0000000000
      1077       332  TIP3      H2             12.6311996015      -17.6004857466      -31.3678446635  SOLV      321             0.0000000000
      1078       333  TIP3      OH2             0.8932696015      -16.6844157466      -30.2358146635  SOLV      322             0.0000000000
      1079       333  TIP3      H1              1.5068996015      -16.0516557466      -29.8625746635  SOLV      322             0.0000000000
      1080       333  TIP3      H2              1.4053396015      -17.1569157466      -30.8921246635  SOLV      322             0.0000000000
      1081       334  TIP3      OH2             2.2761096015       -8.9367257466      -27.1135146635  SOLV      323             0.0000000000
      1082       334  TIP3      H1              2.2708696015       -8.0573757466      -27.4915846635  SOLV      323             0.0000000000
      1083       334  TIP3      H2              1.4225196015       -9.0203157466      -26.6885246635  SOLV      323             0.0000000000
      1084       335  TIP3      OH2            -1.6028003985       -9.2659357466      -36.3315846635  SOLV      324             0.0000000000
      1085       335  TIP3      H1             -1.8747103985       -9.0368357466      -37.2202946635  SOLV      324             0.0000000000
      1086       335  TIP3      H2             -1.5572303985       -8.4280557466      -35.8710546635  SOLV      324             0.0000000000
      1087       336  TIP3      OH2            12.0221696015       -7.6443457466      -29.6187346635  SOLV      325             0.0000000000
      1088       336  TIP3      H1             11.0805396015       -7.5859557466      -29.4570446635  SOLV      325             0.0000000000
      1089       336  TIP3      H2             12.2987796015       -6.7382957466      -29.7557646635  SOLV      325             0.0000000000
      1090       337  TIP3      OH2            12.3228696015      -19.3578157466      -28.2013446635  SOLV      326             0.0000000000
      1091       337  TIP3      H1             11.5867896015      -18.7471057466      -28.2392146635  SOLV      326             0.0000000000
      1092       337  TIP3      H2             13.0062696015      -18.9429157466      -28.7277046635  SOLV      326             0.0000000000
      1093       338  TIP3      OH2             5.3260096015      -21.2710857466      -30.7355446635  SOLV      327             0.0000000000
      1094       338  TIP3      H1              5.2084296015      -22.2194857466      -30.7897146635  SOLV      327             0.0000000000
      1095       338  TIP3      H2              4.4710196015      -20.9384757466      -30.4624346635  SOLV      327             0.0000000000
      1096       339  TIP3      OH2            10.2742896015       -5.8629957466      -32.9935746635  SOLV      328             0.0000000000
      1097       339  TIP3      H1             10.6995196015       -6.5702057466      -33.4786146635  SOLV      328             0.0000000000
      1098       339  TIP3      H2             10.5912896015       -5.0617257466      -33.4103546635  SOLV      328             0.0000000000
      1099       340  TIP3      OH2            11.4339396015       -7.9621457466      -34.4849146635  SOLV      329             0.0000000000
      1100       340  TIP3      H1             11.1764196015       -8.6521357466      -35.0963246635  SOLV      329             0.0000000000
      1101       340  TIP3      H2             11.5050196015       -8.4050257466      -33.6393246635  SOLV      329             0.0000000000
      1102       341  TIP3      OH2            13.1199596015       -9.3954757466      -26.0075646635  SOLV      330             0.0000000000
      1103       341  TIP3      H1             13.2595896015       -9.9872257466      -26.7468646635  SOLV      330             0.0000000000
      1104       341  TIP3      H2             13.2872396015       -8.5228857466      -26.3636846635  SOLV      330             0.0000000000
      1105       342  TIP3      OH2             7.5924996015      -12.4335257466      -36.2349646635  SOLV      331             0.0000000000
      1106       342  TIP3      H1              6.8810496015      -11.8985557466      -36.5869146635  SOLV      331             0.0000000000
      1107       342  TIP3      H2              8.2834596015      -12.3783157466      -36.8950746635  SOLV      331             0.0000000000
      1108       343  TIP3      OH2             7.6464196015      -13.9760957466      -39.1964646635  SOLV      332             0.0000000000
      1109       343  TIP3      H1              8.3474096015      -13.9534057466      -38.5450646635  SOLV      332             0.0000000000
      1110       343  TIP3      H2              7.9487096015      -14.6041257466      -39.8525346635  SOLV      332             0.0000000000
      1111       344  TIP3      OH2            14.9618896015      -13.0556757466      -27.9415246635  SOLV      333             0.0000000000
      1112       344  TIP3      H1             14.3092996015      -12.3611157466      -27.8524346635  SOLV      333             0.0000000000
      1113       344  TIP3      H2             15.4269196015      -12.8455857466      -28.7513646635  SOLV      333             0.0000000000
      1114       345  TIP3      OH2            10.9982696015      -12.2241957466      -35.2833746635  SOLV      334             0.0000000000
      1115       345  TIP3      H1             10.2663696015      -11.9958257466      -34.7103146635  SOLV      334             0.0000000000
      1116       345  TIP3      H2             11.4454896015      -12.9379257466      -34.8286246635  SOLV      334             0.0000000000
      1117       346  TIP3      OH2            10.8956196015      -14.0499357466      -26.2156746635  SOLV      335             0.0000000000
      1118       346  TIP3      H1             10.9755296015      -13.2864957466      -25.6438246635  SOLV      335             0.0000000000
      1119       346  TIP3      H2             10.2943896015      -13.7706957466      -26.9061646635  SOLV      335             0.0000000000
      1120       347  TIP3      OH2             2.6436396015      -11.5935757466      -33.4008746635  SOLV      336             0.0000000000
      1121       347  TIP3      H1              2.3131596015      -11.9642357466      -34.2191746635  SOLV      336             0.0000000000
      1122       347  TIP3      H2              3.2320496015      -12.2641757466      -33.0540446635  SOLV      336             0.0000000000
      1123       348  TIP3      OH2             4.0103896015       -8.1655157466      -30.7196546635  SOLV      337             0.0000000000
      1124       348  TIP3      H1              3.9155196015       -8.7442057466      -31.4761946635  SOLV      337             0.0000000000
      1125       348  TIP3      H2              4.7397496015       -8.5369457466      -30.2233746635  SOLV      337             0.0000000000
      1126       349  TIP3      OH2             3.0101896015      -12.8250157466      -29.7673746635  SOLV      338             0.0000000000
      1127       349  TIP3      H1              3.5754396015      -12.7035957466      -30.5302546635  SOLV      338             0.0000000000
      1128       349  TIP3      H2              3.3290796015      -12.1875157466      -29.1285246635  SOLV      338             0.0000000000
      1129       350  TIP3      OH2             9.3194096015       -7.3218257466      -29.0333246635  SOLV      339             0.0000000000
      1130       350  TIP3      H1              9.0790696015       -6.6595157466      -28.3854046635  SOLV      339             0.0000000000
      1131       350  TIP3      H2              9.1212296015       -8.1563057466      -28.6083646635  SOLV      339             0.0000000000
      1132       351  TIP3      OH2             3.8902596015       -8.4257457466      -25.0501846635  SOLV      340             0.0000000000
      1133       351  TIP3      H1              3.5790096015       -7.6434257466      -24.5948646635  SOLV      340             0.0000000000
      1134       351  TIP3      H2              3.2402796015       -8.5788357466      -25.7359846635  SOLV      340             0.0000000000
      1135       352  TIP3      OH2             9.8692196015      -13.0619057466      -37.5982546635  SOLV      341             0.0000000000
      1136       352  TIP3      H1             10.4487696015      -12.9118757466      -36.8513646635  SOLV      341             0.0000000000
      1137       352  TIP3      H2             10.2832196015      -12.5911657466      -38.3216146635  SOLV      341             0.0000000000
      1138       353  TIP3      OH2             0.8102496015      -12.2276357466      -25.8216146635  SOLV      342             0.0000000000
      1139       353  TIP3      H1              0.8805696015      -11.5769557466      -25.1231146635  SOLV      342             0.0000000000
      1140       353  TIP3      H2             -0.0805303985      -12.1248857466      -26.1565246635  SOLV      342             0.0000000000
      1141       354  TIP3      OH2             7.5957096015       -6.3250557466      -34.1629446635  SOLV      343             0.0000000000
      1142       354  TIP3      H1              8.0694696015       -6.0294257466      -33.3855246635  SOLV      343             0.0000000000
      1143       354  TIP3      H2              7.0326396015       -5.5868957466      -34.3959846635  SOLV      343             0.0000000000
      1144       355  TIP3      OH2             2.1298496015       -6.3542457466      -24.2868046635  SOLV      344             0.0000000000
      1145       355  TIP3      H1              2.1373796015       -6.4902757466      -25.2342546635  SOLV      344             0.0000000000
      1146       355  TIP3      H2              1.2138896015       -6.4714357466      -24.0348046635  SOLV      344             0.0000000000
      1147       356  TIP3      OH2             1.6339096015      -12.5241457466      -35.8115946635  SOLV      345             0.0000000000
      1148       356  TIP3      H1              1.3420396015      -11.7559757466      -36.3024646635  SOLV      345             0.0000000000
      1149       356  TIP3      H2              0.9594296015      -13.1835257466      -35.9744546635  SOLV      345             0.0000000000
      1150       357  TIP3      OH2            -2.2730803985      -10.1612257466      -26.9966146635  SOLV      346             0.0000000000
      1151       357  TIP3      H1             -2.7742403985      -10.1892857466      -27.8116446635  SOLV      346             0.0000000000
      1152       357  TIP3      H2             -2.2677103985      -11.0669057466      -26.6868846635  SOLV      346             0.0000000000
      1153       358  TIP3      OH2            -2.5228103985       -7.3808457466      -30.1125946635  SOLV      347             0.0000000000
      1154       358  TIP3      H1             -1.5767503985       -7.5251457466      -30.1316446635  SOLV      347             0.0000000000
      1155       358  TIP3      H2             -2.6351803985       -6.5965657466      -29.5754746635  SOLV      347             0.0000000000
      1156       359  TIP3      OH2            15.6750396015       -6.7148757466      -24.4302246635  SOLV      348             0.0000000000
      1157       359  TIP3      H1             15.6257196015       -7.6700657466      -24.4674646635  SOLV      348             0.0000000000
      1158       359  TIP3      H2             14.8482696015       -6.4473457466      -24.0288446635  SOLV      348             0.0000000000
      1159       360  TIP3      OH2             6.6534396015       -7.1409557466      -25.5540846635  SOLV      349             0.0000000000
      1160       360  TIP3      H1              6.7408996015       -6.3144957466      -25.0791746635  SOLV      349             0.0000000000
      1161       360  TIP3      H2              5.7899496015       -7.4705757466      -25.3051546635  SOLV      349             0.0000000000
      1162       361  TIP3      OH2             7.0680196015       -3.3685857466      -35.7480246635  SOLV      350             0.0000000000
      1163       361  TIP3      H1              6.9926196015       -3.4898657466      -36.6945046635  SOLV      350             0.0000000000
      1164       361  TIP3      H2              7.1008896015       -2.4193157466      -35.6295646635  SOLV      350             0.0000000000
      1165       362  TIP3      OH2             0.7213996015       -4.5798857466      -33.9671246635  SOLV      351             0.0000000000
      1166       362  TIP3      H1              0.8734396015       -4.9278457466      -33.0884746635  SOLV      351             0.0000000000
      1167       362  TIP3      H2             -0.1295603985       -4.9361557466      -34.2224046635  SOLV      351             0.0000000000
      1168       363  TIP3      OH2            10.1696196015       -4.2145657466      -38.7457846635  SOLV      352             0.0000000000
      1169       363  TIP3      H1             10.5444596015       -4.9589557466      -39.2165246635  SOLV      352             0.0000000000
      1170       363  TIP3      H2             10.1739896015       -4.4845057466      -37.8274546635  SOLV      352             0.0000000000
      1171       364  TIP3      OH2             9.8384296015       -4.2888557466      -35.9965646635  SOLV      353             0.0000000000
      1172       364  TIP3      H1              8.9034096015       -4.1886657466      -35.8178646635  SOLV      353             0.0000000000
      1173       364  TIP3      H2             10.1186196015       -4.9982557466      -35.4182446635  SOLV      353             0.0000000000
      1174       365  TIP3      OH2            12.8270196015      -15.2216257466      -23.9500046635  SOLV      354             0.0000000000
      1175       365  TIP3      H1             12.4196996015      -14.7410657466      -24.6706746635  SOLV      354             0.0000000000
      1176       365  TIP3      H2             12.8675896015      -16.1270257466      -24.2579246635  SOLV      354             0.0000000000
      1177       366  TIP3      OH2            -0.0240303985       -8.8376857466      -25.9533346635  SOLV      355             0.0000000000
      1178       366  TIP3      H1              0.1920996015       -9.1991257466      -25.0937546635  SOLV      355             0.0000000000
      1179       366  TIP3      H2             -0.8795603985       -9.2123057466      -26.1629846635  SOLV      355             0.0000000000
      1180       367  TIP3      OH2             2.5947696015      -20.3676357466      -29.9579146635  SOLV      356             0.0000000000
      1181       367  TIP3      H1              1.7331396015      -20.4548157466      -30.3656246635  SOLV      356             0.0000000000
      1182       367  TIP3      H2              2.5723396015      -19.5116257466      -29.5301546635  SOLV      356             0.0000000000
      1183       368  TIP3      OH2             7.2575496015      -20.6455957466      -26.5832146635  SOLV      357             0.0000000000
      1184       368  TIP3      H1              7.6778596015      -21.0608857466      -25.8301546635  SOLV      357             0.0000000000
      1185       368  TIP3      H2              6.3245096015      -20.8242657466      -26.4660146635  SOLV      357             0.0000000000
      1186       369  TIP3      OH2            10.5840396015      -16.8900757466      -25.7297646635  SOLV      358             0.0000000000
      1187       369  TIP3      H1             10.0699896015      -17.0158557466      -24.9321646635  SOLV      358             0.0000000000
      1188       369  TIP3      H2             10.4285096015      -15.9777657466      -25.9741446635  SOLV      358             0.0000000000
      1189       370  TIP3      OH2            11.3465296015      -12.0290757466      -39.9684646635  SOLV      359             0.0000000000
      1190       370  TIP3      H1             11.3886096015      -12.2516857466      -40.8984646635  SOLV      359             0.0000000000
      1191       370  TIP3      H2             12.1957396015      -11.6303657466      -39.7784746635  SOLV      359             0.0000000000
      1192       371  TIP3      OH2             6.9192796015      -18.1532557466      -39.2981346635  SOLV      360             0.0000000000
      1193       371  TIP3      H1              6.6657596015      -18.1340957466      -38.3753246635  SOLV      360             0.0000000000
      1194       371  TIP3      H2              6.6624896015      -19.0247157466      -39.5995146635  SOLV      360             0.0000000000
      1195       372  TIP3      OH2             2.6857796015      -15.4021857466      -28.8628946635  SOLV      361             0.0000000000
      1196       372  TIP3      H1              2.0439896015      -15.4424557466      -28.1538846635  SOLV      361             0.0000000000
      1197       372  TIP3      H2              2.7229796015      -14.4757157466      -29.1005946635  SOLV      361             0.0000000000
      1198       373  TIP3      OH2             2.6826896015      -15.1811757466      -33.9508946635  SOLV      362             0.0000000000
      1199       373  TIP3      H1              1.7899796015      -15.5215657466      -34.0095146635  SOLV      362             0.0000000000
      1200       373  TIP3      H2              3.1333496015      -15.5580857466      -34.7065746635  SOLV      362             0.0000000000
      1201       374  TIP3      OH2             8.2182396015      -14.7651457466      -35.1338146635  SOLV      363             0.0000000000
      1202       374  TIP3      H1              7.8092696015      -13.9502857466      -35.4253346635  SOLV      363             0.0000000000
      1203       374  TIP3      H2              8.9388596015      -14.9051357466      -35.7481046635  SOLV      363             0.0000000000
      1204       375  TIP3      OH2             7.3203996015      -14.5895057466      -23.6457446635  SOLV      364             0.0000000000
      1205       375  TIP3      H1              6.7577796015      -15.2943457466      -23.3249646635  SOLV      364             0.0000000000
      1206       375  TIP3      H2              8.1467396015      -14.7103157466      -23.1779846635  SOLV      364             0.0000000000
      1207       376  TIP3      OH2             9.2230096015      -15.3191057466      -32.3198446635  SOLV      365             0.0000000000
      1208       376  TIP3      H1              9.0274596015      -14.7134257466      -33.0347846635  SOLV      365             0.0000000000
      1209       376  TIP3      H2              9.4042696015      -16.1525857466      -32.7542146635  SOLV      365             0.0000000000
      1210       377  TIP3      OH2             0.4358296015      -15.0818357466      -26.9956946635  SOLV      366             0.0000000000
      1211       377  TIP3      H1              0.3977696015      -14.6816757466      -26.1269846635  SOLV      366             0.0000000000
      1212       377  TIP3      H2             -0.0550603985      -15.8985957466      -26.9054046635  SOLV      366             0.0000000000
      1213       378  TIP3      OH2            -2.9560903985      -17.9656557466      -33.1452246635  SOLV      367             0.0000000000
      1214       378  TIP3      H1             -2.3253203985      -17.9944457466      -32.4258346635  SOLV      367             0.0000000000
      1215       378  TIP3      H2             -2.5066603985      -18.3907857466      -33.8756346635  SOLV      367             0.0000000000
      1216       379  TIP3      OH2             8.4869296015      -13.6809757466      -27.6486046635  SOLV      368             0.0000000000
      1217       379  TIP3      H1              8.8104096015      -14.3120057466      -28.2915546635  SOLV      368             0.0000000000
      1218       379  TIP3      H2              8.0468596015      -14.2157557466      -26.9878646635  SOLV      368             0.0000000000
      1219       380  TIP3      OH2             5.2642196015      -17.7534257466      -32.8644846635  SOLV      369             0.0000000000
      1220       380  TIP3      H1              4.3533296015      -17.6967457466      -32.5758846635  SOLV      369             0.0000000000
      1221       380  TIP3      H2              5.7695096015      -17.8138757466      -32.0537646635  SOLV      369             0.0000000000
      1222       381  TIP3      OH2             0.0925596015      -16.1247957466      -34.0377246635  SOLV      370             0.0000000000
      1223       381  TIP3      H1             -0.7966403985      -16.0252457466      -34.3777646635  SOLV      370             0.0000000000
      1224       381  TIP3      H2              0.3890496015      -16.9664957466      -34.3839346635  SOLV      370             0.0000000000
      1225       382  TIP3      OH2             3.7457396015      -16.1245357466      -36.3812646635  SOLV      371             0.0000000000
      1226       382  TIP3      H1              4.6772896015      -15.9955357466      -36.2029546635  SOLV      371             0.0000000000
      1227       382  TIP3      H2              3.5307696015      -15.4551057466      -37.0307946635  SOLV      371             0.0000000000
      1228       383  TIP3      OH2             9.6694096015      -18.5187957466      -29.6003046635  SOLV      372             0.0000000000
      1229       383  TIP3      H1              8.9925696015      -18.3874857466      -28.9363346635  SOLV      372             0.0000000000
      1230       383  TIP3      H2              9.1838996015      -18.6738457466      -30.4105346635  SOLV      372             0.0000000000
      1231       384  TIP3      OH2             2.4197596015      -14.9303157466      -38.8146546635  SOLV      373             0.0000000000
      1232       384  TIP3      H1              1.8772696015      -15.3099357466      -39.5058946635  SOLV      373             0.0000000000
      1233       384  TIP3      H2              3.2532496015      -14.7358457466      -39.2432446635  SOLV      373             0.0000000000
      1234       385  TIP3      OH2            12.9569196015       -2.8472557466      -23.3235446635  SOLV      374             0.0000000000
      1235       385  TIP3      H1             13.1567896015       -2.4230657466      -24.1580146635  SOLV      374             0.0000000000
      1236       385  TIP3      H2             13.6122896015       -2.5034357466      -22.7165046635  SOLV      374             0.0000000000
      1237       386  TIP3      OH2             0.5548996015      -10.3731257466      -23.7154946635  SOLV      375             0.0000000000
      1238       386  TIP3      H1              1.2871396015      -10.1185357466      -23.1540446635  SOLV      375             0.0000000000
      1239       386  TIP3      H2             -0.2252303985      -10.1685857466      -23.1999546635  SOLV      375             0.0000000000
      1240       387  TIP3      OH2             6.5841896015      -14.9661257466      -30.9775246635  SOLV      376             0.0000000000
      1241       387  TIP3      H1              7.1485296015      -15.5124657466      -31.5245646635  SOLV      376             0.0000000000
      1242       387  TIP3      H2              6.4365296015      -15.4879357466      -30.1887646635  SOLV      376             0.0000000000
      1243       388  TIP3      OH2             1.5861596015      -18.8295157466      -34.5590446635  SOLV      377             0.0000000000
      1244       388  TIP3      H1              1.2691096015      -19.7319857466      -34.5945046635  SOLV      377             0.0000000000
      1245       388  TIP3      H2              2.3675696015      -18.8277757466      -35.1118846635  SOLV      377             0.0000000000
      1246       389  TIP3      OH2             5.2107796015      -16.5775157466      -28.5634846635  SOLV      378             0.0000000000
      1247       389  TIP3      H1              4.3753096015      -16.1235657466      -28.4532446635  SOLV      378             0.0000000000
      1248       389  TIP3      H2              5.7348396015      -16.3016657466      -27.8114946635  SOLV      378             0.0000000000
      1249       390  TIP3      OH2             5.7550396015      -10.3647457466      -36.8788446635  SOLV      379             0.0000000000
      1250       390  TIP3      H1              5.0101396015      -10.8722157466      -37.2010546635  SOLV      379             0.0000000000
      1251       390  TIP3      H2              5.6207596015      -10.3159457466      -35.9323646635  SOLV      379             0.0000000000
      1252       391  TIP3      OH2            12.9049296015      -11.2319257466      -28.0920846635  SOLV      380             0.0000000000
      1253       391  TIP3      H1             13.5468096015      -10.7752957466      -28.6358646635  SOLV      380             0.0000000000
      1254       391  TIP3      H2             12.0746196015      -11.1186857466      -28.5546746635  SOLV      380             0.0000000000
      1255       392  TIP3      OH2             9.6527196015      -17.5507557466      -38.6795846635  SOLV      381             0.0000000000
      1256       392  TIP3      H1              8.7141396015      -17.4391957466      -38.8307046635  SOLV      381             0.0000000000
      1257       392  TIP3      H2              9.9499296015      -16.6940657466      -38.3730146635  SOLV      381             0.0000000000
      1258       393  TIP3      OH2             7.2742496015      -10.1804157466      -25.6419346635  SOLV      382             0.0000000000
      1259       393  TIP3      H1              6.9288596015      -10.5621757466      -24.8349746635  SOLV      382             0.0000000000
      1260       393  TIP3      H2              7.0742596015       -9.2470557466      -25.5706446635  SOLV      382             0.0000000000
      1261       394  TIP3      OH2            10.3710696015      -15.6834857466      -37.0188446635  SOLV      383             0.0000000000
      1262       394  TIP3      H1             11.2629696015      -15.8209857466      -36.6997246635  SOLV      383             0.0000000000
      1263       394  TIP3      H2             10.4274296015      -14.8928757466      -37.5554946635  SOLV      383             0.0000000000
      1264       395  TIP3      OH2             0.8798696015      -11.0697457466      -31.1090546635  SOLV      384             0.0000000000
      1265       395  TIP3      H1              1.6245896015      -11.0721757466      -31.7104046635  SOLV      384             0.0000000000
      1266       395  TIP3      H2              0.9575296015      -11.8933657466      -30.6275446635  SOLV      384             0.0000000000
      1267       396  TIP3      OH2             7.8804496015       -8.9063157466      -37.8533846635  SOLV      385             0.0000000000
      1268       396  TIP3      H1              7.5852896015       -8.0795257466      -37.4719046635  SOLV      385             0.0000000000
      1269       396  TIP3      H2              7.1774496015       -9.5256257466      -37.6572446635  SOLV      385             0.0000000000
      1270       397  TIP3      OH2            -2.1121603985      -12.6090557466      -25.7942046635  SOLV      386             0.0000000000
      1271       397  TIP3      H1             -1.8893003985      -13.0270957466      -24.9624546635  SOLV      386             0.0000000000
      1272       397  TIP3      H2             -2.7141503985      -13.2215557466      -26.2169246635  SOLV      386             0.0000000000
      1273       398  TIP3      OH2             4.9043296015      -13.0920657466      -23.5812346635  SOLV      387             0.0000000000
      1274       398  TIP3      H1              4.6084096015      -13.2577657466      -24.4763246635  SOLV      387             0.0000000000
      1275       398  TIP3      H2              5.8358496015      -13.3120357466      -23.5918446635  SOLV      387             0.0000000000
      1276       399  TIP3      OH2             9.5246096015       -7.7188657466      -25.6914346635  SOLV      388             0.0000000000
      1277       399  TIP3      H1              8.6240396015       -7.5356057466      -25.9590446635  SOLV      388             0.0000000000
      1278       399  TIP3      H2              9.5587196015       -7.4599357466      -24.7705546635  SOLV      388             0.0000000000
      1279       400  TIP3      OH2            15.2559396015      -15.4740757466      -37.3241746635  SOLV      389             0.0000000000
      1280       400  TIP3      H1             14.7015696015      -15.8702757466      -37.9964246635  SOLV      389             0.0000000000
      1281       400  TIP3      H2             15.3562996015      -14.5635557466      -37.6018446635  SOLV      389             0.0000000000
      1282       401  TIP3      OH2            15.2191396015       -9.6739057466      -24.4870246635  SOLV      390             0.0000000000
      1283       401  TIP3      H1             14.3679896015       -9.4355257466      -24.8543846635  SOLV      390             0.0000000000
      1284       401  TIP3      H2             15.8094796015       -9.6905857466      -25.2403146635  SOLV      390             0.0000000000
      1285       402  TIP3      OH2            13.5511096015       -6.6880357466      -36.8589646635  SOLV      391             0.0000000000
      1286       402  TIP3      H1             13.1782196015       -7.5136557466      -36.5499046635  SOLV      391             0.0000000000
      1287       402  TIP3      H2             13.8284596015       -6.8710957466      -37.7566246635  SOLV      391             0.0000000000
      1288       403  TIP3      OH2            10.7114996015      -11.8800857466      -29.8377746635  SOLV      392             0.0000000000
      1289       403  TIP3      H1              9.7831896015      -12.1118957466      -29.8648446635  SOLV      392             0.0000000000
      1290       403  TIP3      H2             11.1626096015      -12.6571057466      -30.1678946635  SOLV      392             0.0000000000
      1291       404  TIP3      OH2             3.2548096015       -7.5519257466      -33.7049046635  SOLV      393             0.0000000000
      1292       404  TIP3      H1              3.7820296015       -6.7784857466      -33.9050246635  SOLV      393             0.0000000000
      1293       404  TIP3      H2              2.3746596015       -7.3270057466      -34.0065046635  SOLV      393             0.0000000000
      1294       405  TIP3      OH2            -0.9904203985      -12.6895157466      -39.1176646635  SOLV      394             0.0000000000
      1295       405  TIP3      H1             -0.3744303985      -12.0627957466      -38.7381846635  SOLV      394             0.0000000000
      1296       405  TIP3      H2             -1.8521603985      -12.3735357466      -38.8460146635  SOLV      394             0.0000000000
      1297       406  TIP3      OH2             4.6820396015       -9.8889357466      -34.1284746635  SOLV      395             0.0000000000
      1298       406  TIP3      H1              4.4410396015       -8.9634957466      -34.0869446635  SOLV      395             0.0000000000
      1299       406  TIP3      H2              3.9413996015      -10.3478057466      -33.7320846635  SOLV      395             0.0000000000
      1300       407  TIP3      OH2             5.1966996015       -5.7395757466      -27.8133646635  SOLV      396             0.0000000000
      1301       407  TIP3      H1              5.5591696015       -4.8850157466      -28.0469246635  SOLV      396             0.0000000000
      1302       407  TIP3      H2              5.7282196015       -6.0314157466      -27.0727346635  SOLV      396             0.0000000000
      1303       408  TIP3      OH2             3.3651196015       -4.8671757466      -34.5832546635  SOLV      397             0.0000000000
      1304       408  TIP3      H1              2.4151696015       -4.7614357466      -34.5319246635  SOLV      397             0.0000000000
      1305       408  TIP3      H2              3.7169296015       -4.0464357466      -34.2385046635  SOLV      397             0.0000000000
      1306       409  TIP3      OH2             8.7407796015       -9.6405057466      -28.1128046635  SOLV      398             0.0000000000
      1307       409  TIP3      H1              8.3149096015       -9.8683357466      -27.2864046635  SOLV      398             0.0000000000
      1308       409  TIP3      H2              9.3213596015      -10.3793257466      -28.2952746635  SOLV      398             0.0000000000
      1309       410  TIP3      OH2            10.9436696015       -8.7114557466      -39.0389046635  SOLV      399             0.0000000000
      1310       410  TIP3      H1             11.2969796015       -9.0914757466      -38.2345546635  SOLV      399             0.0000000000
      1311       410  TIP3      H2              9.9950196015       -8.8049757466      -38.9519746635  SOLV      399             0.0000000000
      1312       411  TIP3      OH2            11.3991996015       -5.0885557466      -25.6433246635  SOLV      400             0.0000000000
      1313       411  TIP3      H1             10.7975196015       -5.6442657466      -26.1386946635  SOLV      400             0.0000000000
      1314       411  TIP3      H2             11.6805696015       -4.4215757466      -26.2695846635  SOLV      400             0.0000000000
      1315       412  TIP3      OH2            -0.4782103985      -17.8557857466      -26.2360646635  SOLV      401             0.0000000000
      1316       412  TIP3      H1             -1.3709803985      -17.5172457466      -26.3036646635  SOLV      401             0.0000000000
      1317       412  TIP3      H2             -0.5769303985      -18.7111757466      -25.8179846635  SOLV      401             0.0000000000
      1318       413  TIP3      OH2            11.8095996015      -10.0392557466      -36.8121146635  SOLV      402             0.0000000000
      1319       413  TIP3      H1             11.5323596015      -10.7673257466      -36.2560046635  SOLV      402             0.0000000000
      1320       413  TIP3      H2             12.7368996015       -9.9200557466      -36.6068546635  SOLV      402             0.0000000000
      1321       414  TIP3      OH2            -0.8270103985       -6.0513457466      -27.8011246635  SOLV      403             0.0000000000
      1322       414  TIP3      H1             -0.6099803985       -6.9831057466      -27.8321546635  SOLV      403             0.0000000000
      1323       414  TIP3      H2             -0.5806603985       -5.7768457466      -26.9178446635  SOLV      403             0.0000000000
      1324       415  TIP3      OH2             5.0344496015       -7.5998457466      -40.5919046635  SOLV      404             0.0000000000
      1325       415  TIP3      H1              5.2734296015       -8.3480357466      -41.1390146635  SOLV      404             0.0000000000
      1326       415  TIP3      H2              4.7655796015       -7.9876757466      -39.7591246635  SOLV      404             0.0000000000
      1327       416  TIP3      OH2             3.9715096015       -8.0294657466      -38.1356446635  SOLV      405             0.0000000000
      1328       416  TIP3      H1              4.1183096015       -8.5494857466      -37.3455546635  SOLV      405             0.0000000000
      1329       416  TIP3      H2              3.9686796015       -7.1227057466      -37.8290546635  SOLV      405             0.0000000000
      1330       417  TIP3      OH2             0.4246196015      -10.7771357466      -37.6251046635  SOLV      406             0.0000000000
      1331       417  TIP3      H1             -0.2614503985      -10.4248857466      -37.0581346635  SOLV      406             0.0000000000
      1332       417  TIP3      H2              0.9474096015      -10.0141757466      -37.8716746635  SOLV      406             0.0000000000
      1333       418  TIP3      OH2             8.2561296015      -18.1147557466      -27.3462046635  SOLV      407             0.0000000000
      1334       418  TIP3      H1              8.9549196015      -18.0408857466      -26.6962346635  SOLV      407             0.0000000000
      1335       418  TIP3      H2              7.8752696015      -18.9792557466      -27.1919146635  SOLV      407             0.0000000000
      1336       419  TIP3      OH2             9.0406196015      -18.4625857466      -36.2489746635  SOLV      408             0.0000000000
      1337       419  TIP3      H1              9.2604496015      -17.9910457466      -37.0524346635  SOLV      408             0.0000000000
      1338       419  TIP3      H2              9.5990196015      -18.0683257466      -35.5789146635  SOLV      408             0.0000000000
      1339       420  TIP3      OH2             6.7092296015       -6.3321057466      -37.3862246635  SOLV      409             0.0000000000
      1340       420  TIP3      H1              5.8928396015       -5.8351357466      -37.3337946635  SOLV      409             0.0000000000
      1341       420  TIP3      H2              7.2388596015       -5.8567557466      -38.0263446635  SOLV      409             0.0000000000
      1342       421  TIP3      OH2             6.2406096015      -16.7347057466      -35.4141346635  SOLV      410             0.0000000000
      1343       421  TIP3      H1              7.0528696015      -16.2303857466      -35.3679646635  SOLV      410             0.0000000000
      1344       421  TIP3      H2              5.9959096015      -16.8797357466      -34.5001746635  SOLV      410             0.0000000000
      1345       422  TIP3      OH2             6.7762496015      -15.7484357466      -26.2294746635  SOLV      411             0.0000000000
      1346       422  TIP3      H1              6.8952796015      -15.1748957466      -25.4724346635  SOLV      411             0.0000000000
      1347       422  TIP3      H2              7.4317096015      -16.4364957466      -26.1146946635  SOLV      411             0.0000000000
      1348       423  TIP3      OH2             4.0475396015       -5.2883857466      -37.4045346635  SOLV      412             0.0000000000
      1349       423  TIP3      H1              4.2084096015       -4.4886357466      -37.9052746635  SOLV      412             0.0000000000
      1350       423  TIP3      H2              3.8503196015       -4.9817857466      -36.5194746635  SOLV      412             0.0000000000
      1351       424  TIP3      OH2             2.7819796015      -18.5904657466      -37.7887746635  SOLV      413             0.0000000000
      1352       424  TIP3      H1              2.6984596015      -17.7021557466      -37.4421346635  SOLV      413             0.0000000000
      1353       424  TIP3      H2              3.6720096015      -18.8557957466      -37.5570946635  SOLV      413             0.0000000000
      1354       425  TIP3      OH2            12.9808296015      -17.8414057466      -25.3945046635  SOLV      414             0.0000000000
      1355       425  TIP3      H1             12.0644096015      -17.5792357466      -25.4821346635  SOLV      414             0.0000000000
      1356       425  TIP3      H2             13.3163296015      -17.8445057466      -26.2909746635  SOLV      414             0.0000000000
      1357       426  TIP3      OH2            11.5829296015      -14.0913057466      -31.2987746635  SOLV      415             0.0000000000
      1358       426  TIP3      H1             10.7853696015      -14.5062857466      -31.6272746635  SOLV      415             0.0000000000
      1359       426  TIP3      H2             12.0280396015      -14.7819357466      -30.8077246635  SOLV      415             0.0000000000
      1360       427  TIP3      OH2             1.0405096015       -8.1632457466      -38.7283246635  SOLV      416             0.0000000000
      1361       427  TIP3      H1              1.6326596015       -7.4637657466      -38.4520846635  SOLV      416             0.0000000000
      1362       427  TIP3      H2              1.4998096015       -8.5962957466      -39.4478646635  SOLV      416             0.0000000000
      1363       428  TIP3      OH2            12.6693896015       -4.8350557466      -29.6764246635  SOLV      417             0.0000000000
      1364       428  TIP3      H1             12.5138196015       -4.1566157466      -30.3334946635  SOLV      417             0.0000000000
      1365       428  TIP3      H2             13.6020296015       -4.7631257466      -29.4733646635  SOLV      417             0.0000000000
      1366       429  TIP3      OH2             0.1646296015      -20.7172857466      -30.9392846635  SOLV      418             0.0000000000
      1367       429  TIP3      H1             -0.0643903985      -20.6580357466      -31.8667846635  SOLV      418             0.0000000000
      1368       429  TIP3      H2             -0.2780303985      -21.5087357466      -30.6328746635  SOLV      418             0.0000000000
      1369       430  TIP3      OH2            -0.9050403985       -6.7765757466      -34.7787046635  SOLV      419             0.0000000000
      1370       430  TIP3      H1             -1.7371803985       -6.3043057466      -34.7515646635  SOLV      419             0.0000000000
      1371       430  TIP3      H2             -0.3592103985       -6.2668157466      -35.3773946635  SOLV      419             0.0000000000
      1372       431  TIP3      OH2            -1.6166703985       -4.1642057466      -23.4489046635  SOLV      420             0.0000000000
      1373       431  TIP3      H1             -1.0764503985       -4.3808057466      -22.6889846635  SOLV      420             0.0000000000
      1374       431  TIP3      H2             -2.0978703985       -4.9696057466      -23.6386546635  SOLV      420             0.0000000000
      1375       432  TIP3      OH2             2.9806696015       -5.2447657466      -21.8284846635  SOLV      421             0.0000000000
      1376       432  TIP3      H1              3.7483896015       -5.7036857466      -21.4875646635  SOLV      421             0.0000000000
      1377       432  TIP3      H2              2.9592896015       -5.4707857466      -22.7583646635  SOLV      421             0.0000000000
      1378       433  TIP3      OH2             7.0726296015       -5.7367057466      -40.4533046635  SOLV      422             0.0000000000
      1379       433  TIP3      H1              6.4287296015       -6.3678457466      -40.1319346635  SOLV      422             0.0000000000
      1380       433  TIP3      H2              7.8344596015       -6.2679057466      -40.6849546635  SOLV      422             0.0000000000
      1381       434  TIP3      OH2             9.5575396015       -6.8646557466      -23.0993346635  SOLV      423             0.0000000000
      1382       434  TIP3      H1              9.2064896015       -7.7213557466      -22.8562946635  SOLV      423             0.0000000000
      1383       434  TIP3      H2             10.2838596015       -6.7219857466      -22.4924346635  SOLV      423             0.0000000000
      1384       435  TIP3      OH2            11.6769196015       -5.9197157466      -40.2195046635  SOLV      424             0.0000000000
      1385       435  TIP3      H1             11.9599596015       -6.7141957466      -39.7668146635  SOLV      424             0.0000000000
      1386       435  TIP3      H2             12.4167096015       -5.6866157466      -40.7803946635  SOLV      424             0.0000000000
      1387       436  TIP3      OH2            -1.7097203985      -10.3537957466      -22.4944746635  SOLV      425             0.0000000000
      1388       436  TIP3      H1             -1.5656703985      -11.2557257466      -22.7808046635  SOLV      425             0.0000000000
      1389       436  TIP3      H2             -2.4819803985      -10.0675857466      -22.9822446635  SOLV      425             0.0000000000
      1390       437  TIP3      OH2             2.6316496015      -10.0102257466      -40.3620146635  SOLV      426             0.0000000000
      1391       437  TIP3      H1              2.6960596015      -10.8042657466      -39.8313746635  SOLV      426             0.0000000000
      1392       437  TIP3      H2              3.2845696015      -10.1289457466      -41.0518146635  SOLV      426             0.0000000000
      1393       438  TIP3      OH2             4.9458896015      -10.3839857466      -23.0618346635  SOLV      427             0.0000000000
      1394       438  TIP3      H1              4.6172696015      -10.1131757466      -23.9190946635  SOLV      427             0.0000000000
      1395       438  TIP3      H2              5.0977096015      -11.3250057466      -23.1493346635  SOLV      427             0.0000000000
      1396       439  TIP3      OH2             7.9839896015       -8.9630557466      -40.6262146635  SOLV      428             0.0000000000
      1397       439  TIP3      H1              7.7153996015       -8.7828457466      -39.7253246635  SOLV      428             0.0000000000
      1398       439  TIP3      H2              7.7775496015       -9.8884357466      -40.7576346635  SOLV      428             0.0000000000
      1399       440  TIP3      OH2            10.6804096015      -10.4682557466      -25.6786046635  SOLV      429             0.0000000000
      1400       440  TIP3      H1             11.4258896015       -9.8798857466      -25.7982046635  SOLV      429             0.0000000000
      1401       440  TIP3      H2              9.9230896015       -9.8862857466      -25.6152946635  SOLV      429             0.0000000000
      1402       441  TIP3      OH2            -0.8770703985      -13.1534657466      -23.0745446635  SOLV      430             0.0000000000
      1403       441  TIP3      H1             -0.4689503985      -14.0108057466      -23.1954846635  SOLV      430             0.0000000000
      1404       441  TIP3      H2             -1.1373103985      -13.1393357466      -22.1535146635  SOLV      430             0.0000000000
      1405       442  TIP3      OH2             3.7810296015      -12.0376057466      -38.0562146635  SOLV      431             0.0000000000
      1406       442  TIP3      H1              3.3212296015      -12.5217757466      -37.3703646635  SOLV      431             0.0000000000
      1407       442  TIP3      H2              4.0358996015      -12.7060657466      -38.6921646635  SOLV      431             0.0000000000
      1408       443  TIP3      OH2             3.0699596015      -14.1448957466      -25.7002546635  SOLV      432             0.0000000000
      1409       443  TIP3      H1              2.4515696015      -13.4702357466      -25.4197846635  SOLV      432             0.0000000000
      1410       443  TIP3      H2              3.4140796015      -13.8235057466      -26.5336346635  SOLV      432             0.0000000000
      1411       444  TIP3      OH2             4.8520696015      -13.7944257466      -39.7938946635  SOLV      433             0.0000000000
      1412       444  TIP3      H1              4.6715696015      -13.9493057466      -40.7210646635  SOLV      433             0.0000000000
      1413       444  TIP3      H2              5.8021196015      -13.6865557466      -39.7491046635  SOLV      433             0.0000000000
      1414       445  TIP3      OH2             8.0897796015      -11.6733657466      -22.4227746635  SOLV      434             0.0000000000
      1415       445  TIP3      H1              9.0428996015      -11.5894557466      -22.4501746635  SOLV      434             0.0000000000
      1416       445  TIP3      H2              7.9292396015      -12.3851857466      -21.8032846635  SOLV      434             0.0000000000
      1417       446  TIP3      OH2            14.2418996015      -11.4400057466      -40.3480846635  SOLV      435             0.0000000000
      1418       446  TIP3      H1             13.9683796015      -11.8644557466      -41.1612546635  SOLV      435             0.0000000000
      1419       446  TIP3      H2             14.2813096015      -10.5085557466      -40.5650446635  SOLV      435             0.0000000000
      1420       447  TIP3      OH2             3.4093296015      -16.7898157466      -24.6179446635  SOLV      436             0.0000000000
      1421       447  TIP3      H1              3.5594196015      -17.5186857466      -25.2199746635  SOLV      436             0.0000000000
      1422       447  TIP3      H2              3.4115696015      -16.0126457466      -25.1767246635  SOLV      436             0.0000000000
      1423       448  TIP3      OH2             3.8218996015      -18.4202357466      -27.1252046635  SOLV      437             0.0000000000
      1424       448  TIP3      H1              4.3576496015      -17.9685657466      -27.7772746635  SOLV      437             0.0000000000
      1425       448  TIP3      H2              2.9698596015      -18.5282557466      -27.5477946635  SOLV      437             0.0000000000
      1426       449  TIP3      OH2             5.4037396015      -12.9806157466      -26.8856846635  SOLV      438             0.0000000000
      1427       449  TIP3      H1              6.1542196015      -13.1368657466      -27.4589046635  SOLV      438             0.0000000000
      1428       449  TIP3      H2              5.0645696015      -12.1289557466      -27.1611346635  SOLV      438             0.0000000000
      1429       450  TIP3      OH2             9.8193596015      -15.1654357466      -21.8571546635  SOLV      439             0.0000000000
      1430       450  TIP3      H1             10.0114896015      -16.0964957466      -21.9687046635  SOLV      439             0.0000000000
      1431       450  TIP3      H2             10.6769896015      -14.7404857466      -21.8676146635  SOLV      439             0.0000000000
      1432       451  TIP3      OH2            11.1360796015      -12.3769157466      -23.7798846635  SOLV      440             0.0000000000
      1433       451  TIP3      H1             10.8545796015      -11.6674557466      -24.3575046635  SOLV      440             0.0000000000
      1434       451  TIP3      H2             12.0785096015      -12.4496157466      -23.9307646635  SOLV      440             0.0000000000
      1435       452  TIP3      OH2             1.8879596015      -15.5914657466      -22.7063846635  SOLV      441             0.0000000000
      1436       452  TIP3      H1              1.1208596015      -16.1239857466      -22.9166246635  SOLV      441             0.0000000000
      1437       452  TIP3      H2              2.5668596015      -15.9014257466      -23.3057546635  SOLV      441             0.0000000000
      1438       453  TIP3      OH2             4.6274496015      -20.9636657466      -26.6938446635  SOLV      442             0.0000000000
      1439       453  TIP3      H1              4.5294096015      -20.0173457466      -26.7992246635  SOLV      442             0.0000000000
      1440       453  TIP3      H2              3.8850696015      -21.3362857466      -27.1694946635  SOLV      442             0.0000000000
      1441       454  TIP3      OH2             5.8914996015      -16.6421257466      -23.1300046635  SOLV      443             0.0000000000
      1442       454  TIP3      H1              5.6560396015      -16.8614557466      -22.2285146635  SOLV      443             0.0000000000
      1443       454  TIP3      H2              5.1081896015      -16.8490057466      -23.6397546635  SOLV      443             0.0000000000
      1444       455  TIP3      OH2             8.6071596015      -17.5147757466      -24.0546546635  SOLV      444             0.0000000000
      1445       455  TIP3      H1              7.6596996015      -17.4828057466      -23.9223246635  SOLV      444             0.0000000000
      1446       455  TIP3      H2              8.9198296015      -18.1400657466      -23.4008346635  SOLV      444             0.0000000000
      1447       456  TIP3      OH2            10.2413096015      -18.8806657466      -22.0494646635  SOLV      445             0.0000000000
      1448       456  TIP3      H1             10.1444896015      -19.8329357466      -22.0552746635  SOLV      445             0.0000000000
      1449       456  TIP3      H2              9.9196196015      -18.6119857466      -21.1889146635  SOLV      445             0.0000000000
      1450       457  TIP3      OH2             0.0682396015      -17.6710857466      -23.0019146635  SOLV      446             0.0000000000
      1451       457  TIP3      H1              0.2799796015      -18.3774757466      -23.6121646635  SOLV      446             0.0000000000
      1452       457  TIP3      H2             -0.0430103985      -18.1084857466      -22.1577946635  SOLV      446             0.0000000000
      1453       458  TIP3      OH2             4.8492596015      -21.6699257466      -24.0225646635  SOLV      447             0.0000000000
      1454       458  TIP3      H1              5.5610996015      -22.3097057466      -24.0366546635  SOLV      447             0.0000000000
      1455       458  TIP3      H2              4.7482996015      -21.4030957466      -24.9362546635  SOLV      447             0.0000000000
      1456       459  TIP3      OH2             5.2030096015      -19.9870857466      -21.9689346635  SOLV      448             0.0000000000
      1457       459  TIP3      H1              5.0712296015      -20.4627057466      -22.7890846635  SOLV      448             0.0000000000
      1458       459  TIP3      H2              4.6037496015      -19.2427257466      -22.0242246635  SOLV      448             0.0000000000
      1459       460  TIP3      OH2             4.7492396015       -3.1040557466      -38.7925346635  SOLV      449             0.0000000000
      1460       460  TIP3      H1              5.6823096015       -2.9461857466      -38.6486946635  SOLV      449             0.0000000000
      1461       460  TIP3      H2              4.4851196015       -2.4287557466      -39.4173846635  SOLV      449             0.0000000000
      1462       461  TIP3      OH2            -1.6822703985       -8.4676757466      -39.3097246635  SOLV      450             0.0000000000
      1463       461  TIP3      H1             -0.7683503985       -8.3887857466      -39.0363346635  SOLV      450             0.0000000000
      1464       461  TIP3      H2             -1.6749603985       -9.1547157466      -39.9761646635  SOLV      450             0.0000000000
      1465       462  TIP3      OH2            -3.0332103985       -3.0748257466      -34.2323346635  SOLV      451             0.0000000000
      1466       462  TIP3      H1             -3.6805003985       -3.5366557466      -34.7652146635  SOLV      451             0.0000000000
      1467       462  TIP3      H2             -2.6787503985       -3.7464957466      -33.6497146635  SOLV      451             0.0000000000
      1468       463  TIP3      OH2            -2.1632903985       -4.9941257466      -32.4277146635  SOLV      452             0.0000000000
      1469       463  TIP3      H1             -2.4976103985       -5.8743957466      -32.2556946635  SOLV      452             0.0000000000
      1470       463  TIP3      H2             -1.9410503985       -4.6486257466      -31.5631546635  SOLV      452             0.0000000000
      1471       464  TIP3      OH2            15.3851896015       -4.1844857466      -29.4472346635  SOLV      453             0.0000000000
      1472       464  TIP3      H1             15.3638596015       -3.9996457466      -28.5082946635  SOLV      453             0.0000000000
      1473       464  TIP3      H2             16.0758096015       -3.6160857466      -29.7880946635  SOLV      453             0.0000000000
      1474       465  TIP3      OH2            14.9484796015       -4.6173757466      -26.5253246635  SOLV      454             0.0000000000
      1475       465  TIP3      H1             14.4613496015       -5.3529657466      -26.8965846635  SOLV      454             0.0000000000
      1476       465  TIP3      H2             15.4977496015       -5.0109857466      -25.8473846635  SOLV      454             0.0000000000
      1477       466  TIP3      OH2            13.3992096015       -8.8275657466      -21.8872946635  SOLV      455             0.0000000000
      1478       466  TIP3      H1             12.5333196015       -8.9325957466      -21.4930646635  SOLV      455             0.0000000000
      1479       466  TIP3      H2             13.7757996015       -8.0692357466      -21.4408246635  SOLV      455             0.0000000000
      1480       467  TIP3      OH2            14.7001796015      -10.5711957466      -36.3730446635  SOLV      456             0.0000000000
      1481       467  TIP3      H1             15.5503196015      -10.1501057466      -36.2458846635  SOLV      456             0.0000000000
      1482       467  TIP3      H2             14.7056896015      -11.3111857466      -35.7659046635  SOLV      456             0.0000000000
      1483       468  TIP3      OH2            15.0947396015      -12.5174557466      -34.5494746635  SOLV      457             0.0000000000
      1484       468  TIP3      H1             14.3681996015      -12.9971957466      -34.1517146635  SOLV      457             0.0000000000
      1485       468  TIP3      H2             15.6760696015      -12.3119857466      -33.8173146635  SOLV      457             0.0000000000
      1486       469  TIP3      OH2            14.8538596015       -9.7327057466      -29.6017146635  SOLV      458             0.0000000000
      1487       469  TIP3      H1             15.6872796015      -10.1107057466      -29.8823546635  SOLV      458             0.0000000000
      1488       469  TIP3      H2             14.9658896015       -8.7895857466      -29.7208046635  SOLV      458             0.0000000000
      1489       470  TIP3      OH2            13.3400896015       -6.8549557466      -27.2948746635  SOLV      459             0.0000000000
      1490       470  TIP3      H1             12.6926196015       -6.5298057466      -26.6693546635  SOLV      459             0.0000000000
      1491       470  TIP3      H2             12.8224896015       -7.2951857466      -27.9690446635  SOLV      459             0.0000000000
      1492       471  TIP3      OH2            15.3630496015      -12.6166057466      -38.1583446635  SOLV      460             0.0000000000
      1493       471  TIP3      H1             14.8411596015      -12.2601957466      -38.8772546635  SOLV      460             0.0000000000
      1494       471  TIP3      H2             15.3299696015      -11.9418257466      -37.4802546635  SOLV      460             0.0000000000
      1495       472  TIP3      OH2            12.8814196015      -13.9968057466      -33.9866046635  SOLV      461             0.0000000000
      1496       472  TIP3      H1             12.7312996015      -14.9419457466      -34.0068246635  SOLV      461             0.0000000000
      1497       472  TIP3      H2             12.5278696015      -13.7156657466      -33.1426946635  SOLV      461             0.0000000000
      1498       473  TIP3      OH2            -2.0833403985      -11.9185857466      -29.9762246635  SOLV      462             0.0000000000
      1499       473  TIP3      H1             -1.8990503985      -12.0004157466      -30.9119346635  SOLV      462             0.0000000000
      1500       473  TIP3      H2             -1.2340503985      -12.0428857466      -29.5525846635  SOLV      462             0.0000000000
      1501       474  TIP3      OH2            13.7377096015      -12.0264757466      -24.3477746635  SOLV      463             0.0000000000
      1502       474  TIP3      H1             14.3204396015      -12.7612457466      -24.1560546635  SOLV      463             0.0000000000
      1503       474  TIP3      H2             14.3016396015      -11.2544457466      -24.3011946635  SOLV      463             0.0000000000
      1504       475  TIP3      OH2            15.2344196015      -14.1238957466      -23.6632346635  SOLV      464             0.0000000000
      1505       475  TIP3      H1             14.3710896015      -14.5026857466      -23.8287646635  SOLV      464             0.0000000000
      1506       475  TIP3      H2             15.8387896015      -14.8624157466      -23.7376546635  SOLV      464             0.0000000000
      1507       476  TIP3      OH2            12.5918996015      -16.4142257466      -35.5240946635  SOLV      465             0.0000000000
      1508       476  TIP3      H1             12.8716096015      -17.3211857466      -35.3999246635  SOLV      465             0.0000000000
      1509       476  TIP3      H2             13.3510696015      -15.9800757466      -35.9131746635  SOLV      465             0.0000000000
      1510       477  TIP3      OH2            13.2037296015      -15.8324857466      -30.0882046635  SOLV      466             0.0000000000
      1511       477  TIP3      H1             14.1365296015      -15.6204957466      -30.1226046635  SOLV      466             0.0000000000
      1512       477  TIP3      H2             12.9684796015      -15.7312757466      -29.1659046635  SOLV      466             0.0000000000
      1513       478  TIP3      OH2            13.2329196015      -15.0959557466      -27.3122646635  SOLV      467             0.0000000000
      1514       478  TIP3      H1             12.3900496015      -14.8279157466      -26.9462846635  SOLV      467             0.0000000000
      1515       478  TIP3      H2             13.6753496015      -14.2737657466      -27.5231546635  SOLV      467             0.0000000000
      1516       479  TIP3      OH2            -2.4858603985      -16.6480857466      -23.8353446635  SOLV      468             0.0000000000
      1517       479  TIP3      H1             -1.5663703985      -16.7702557466      -23.5990346635  SOLV      468             0.0000000000
      1518       479  TIP3      H2             -2.9354103985      -17.3981157466      -23.4459946635  SOLV      468             0.0000000000
      1519       480  TIP3      OH2            15.5160796015      -21.1159357466      -21.9587646635  SOLV      469             0.0000000000
      1520       480  TIP3      H1             15.8657796015      -21.7695857466      -22.5642946635  SOLV      469             0.0000000000
      1521       480  TIP3      H2             15.6630296015      -20.2785257466      -22.3985046635  SOLV      469             0.0000000000
      1522       481  TIP3      OH2            13.2053796015      -19.1512957466      -35.4758946635  SOLV      470             0.0000000000
      1523       481  TIP3      H1             13.3878796015      -19.6001457466      -34.6503946635  SOLV      470             0.0000000000
      1524       481  TIP3      H2             12.6056696015      -19.7358557466      -35.9394346635  SOLV      470             0.0000000000
      1525       482  TIP3      OH2            -1.2646103985      -18.3359257466      -30.9440546635  SOLV      471             0.0000000000
      1526       482  TIP3      H1             -0.8194503985      -19.1276757466      -30.6420846635  SOLV      471             0.0000000000
      1527       482  TIP3      H2             -0.7983103985      -17.6194057466      -30.5134946635  SOLV      471             0.0000000000
      1528       483  TIP3      OH2            -2.9605803985      -15.3366257466      -29.8750346635  SOLV      472             0.0000000000
      1529       483  TIP3      H1             -2.4686003985      -15.5575757466      -30.6658346635  SOLV      472             0.0000000000
      1530       483  TIP3      H2             -2.5984903985      -14.4962857466      -29.5940846635  SOLV      472             0.0000000000
      1531       484  TIP3      OH2            15.0357996015      -19.0064757466      -23.6096346635  SOLV      473             0.0000000000
      1532       484  TIP3      H1             14.1183696015      -18.7357657466      -23.6452846635  SOLV      473             0.0000000000
      1533       484  TIP3      H2             15.1587396015      -19.5416357466      -24.3936646635  SOLV      473             0.0000000000
      1534       485  TIP3      OH2            12.1237896015       -4.0945457466      -33.8750546635  SOLV      474             0.0000000000
      1535       485  TIP3      H1             12.7760796015       -4.4423357466      -34.4831446635  SOLV      474             0.0000000000
      1536       485  TIP3      H2             12.6341696015       -3.6062257466      -33.2290846635  SOLV      474             0.0000000000
      1537       486  TIP3      OH2            -2.6833903985      -20.3408157466      -27.4765446635  SOLV      475             0.0000000000
      1538       486  TIP3      H1             -3.3483403985      -20.5867857466      -26.8334546635  SOLV      475             0.0000000000
      1539       486  TIP3      H2             -3.1262603985      -19.7187757466      -28.0537446635  SOLV      475             0.0000000000
      1540       487  TIP3      OH2            -0.4914603985       -7.1654057466      -23.3319646635  SOLV      476             0.0000000000
      1541       487  TIP3      H1             -1.3122103985       -6.9907557466      -23.7924946635  SOLV      476             0.0000000000
      1542       487  TIP3      H2             -0.7436803985       -7.2389357466      -22.4115246635  SOLV      476             0.0000000000
      1543       488  TIP3      OH2             2.4628296015       -6.1912857466      -27.0735646635  SOLV      477             0.0000000000
      1544       488  TIP3      H1              2.0379396015       -5.3814357466      -27.3561046635  SOLV      477             0.0000000000
      1545       488  TIP3      H2              3.3671096015       -6.1058757466      -27.3755846635  SOLV      477             0.0000000000
      1546       489  TIP3      OH2             6.7739696015       -4.7922857466      -24.1141946635  SOLV      478             0.0000000000
      1547       489  TIP3      H1              6.9587196015       -5.1256757466      -23.2361646635  SOLV      478             0.0000000000
      1548       489  TIP3      H2              7.6204196015       -4.4824257466      -24.4362746635  SOLV      478             0.0000000000
      1549       490  TIP3      OH2             9.1190096015       -3.5063957466      -24.8700546635  SOLV      479             0.0000000000
      1550       490  TIP3      H1              9.7958996015       -4.1391657466      -25.1101346635  SOLV      479             0.0000000000
      1551       490  TIP3      H2              9.4408896015       -3.1053457466      -24.0627246635  SOLV      479             0.0000000000
      1552       491  TIP3      OH2            14.0363896015      -20.9168457466      -25.7905546635  SOLV      480             0.0000000000
      1553       491  TIP3      H1             13.2237396015      -20.5918157466      -26.1780846635  SOLV      480             0.0000000000
      1554       491  TIP3      H2             14.2692396015      -21.6769957466      -26.3236446635  SOLV      480             0.0000000000
      1555       492  TIP3      OH2            -0.1355003985       -2.9348957466      -27.0260346635  SOLV      481             0.0000000000
      1556       492  TIP3      H1             -0.8558603985       -2.4947957466      -27.4772646635  SOLV      481             0.0000000000
      1557       492  TIP3      H2             -0.5011003985       -3.1854257466      -26.1776346635  SOLV      481             0.0000000000
      1558       493  TIP3      OH2             2.3317596015       -3.3345057466      -27.9963146635  SOLV      482             0.0000000000
      1559       493  TIP3      H1              1.4669796015       -3.2626557466      -27.5923046635  SOLV      482             0.0000000000
      1560       493  TIP3      H2              2.2766596015       -2.7877757466      -28.7800646635  SOLV      482             0.0000000000
      1561       494  TIP3      OH2             7.0423196015       -3.4466157466      -28.8207146635  SOLV      483             0.0000000000
      1562       494  TIP3      H1              6.5857196015       -2.9176457466      -29.4748746635  SOLV      483             0.0000000000
      1563       494  TIP3      H2              7.2051196015       -2.8434757466      -28.0954846635  SOLV      483             0.0000000000
      1564       495  TIP3      OH2             9.3699496015       -4.5686557466      -27.8756846635  SOLV      484             0.0000000000
      1565       495  TIP3      H1              8.4653196015       -4.4036357466      -28.1414746635  SOLV      484             0.0000000000
      1566       495  TIP3      H2              9.7988096015       -3.7154357466      -27.9413446635  SOLV      484             0.0000000000
      1567       496  TIP3      OH2            11.9741396015       -2.9987457466      -27.5809046635  SOLV      485             0.0000000000
      1568       496  TIP3      H1             11.7923396015       -2.0828557466      -27.7914146635  SOLV      485             0.0000000000
      1569       496  TIP3      H2             12.1509196015       -3.4090357466      -28.4274446635  SOLV      485             0.0000000000
      1570       497  TIP3      OH2            -0.7206903985       -4.3116457466      -30.1158546635  SOLV      486             0.0000000000
      1571       497  TIP3      H1             -0.7390903985       -4.7371357466      -29.2586246635  SOLV      486             0.0000000000
      1572       497  TIP3      H2              0.0840996015       -4.6301457466      -30.5246346635  SOLV      486             0.0000000000
      1573       498  TIP3      OH2             1.4206196015       -5.6017757466      -31.4608646635  SOLV      487             0.0000000000
      1574       498  TIP3      H1              1.2016896015       -6.5180357466      -31.2912646635  SOLV      487             0.0000000000
      1575       498  TIP3      H2              2.2448396015       -5.4617357466      -30.9947246635  SOLV      487             0.0000000000
      1576       499  TIP3      OH2             3.9578696015       -5.1318457466      -30.6120646635  SOLV      488             0.0000000000
      1577       499  TIP3      H1              4.1704396015       -6.0199457466      -30.8989746635  SOLV      488             0.0000000000
      1578       499  TIP3      H2              4.0223796015       -5.1660757466      -29.6576646635  SOLV      488             0.0000000000
      1579       500  TIP3      OH2            12.6089596015      -21.3603857466      -31.3550246635  SOLV      489             0.0000000000
      1580       500  TIP3      H1             13.2127196015      -20.8128457466      -31.8569246635  SOLV      489             0.0000000000
      1581       500  TIP3      H2             11.7391596015      -21.0413457466      -31.5956146635  SOLV      489             0.0000000000
      1582       501  TIP3      OH2            14.3359996015      -20.2215157466      -33.0219346635  SOLV      490             0.0000000000
      1583       501  TIP3      H1             14.9477496015      -20.7359457466      -33.5485746635  SOLV      490             0.0000000000
      1584       501  TIP3      H2             14.7183396015      -19.3443057466      -32.9984946635  SOLV      490             0.0000000000
      1585       502  TIP3      OH2            -0.2070103985      -20.8337557466      -33.6457446635  SOLV      491             0.0000000000
      1586       502  TIP3      H1             -0.9840303985      -21.0682657466      -34.1531546635  SOLV      491             0.0000000000
      1587       502  TIP3      H2              0.3233496015      -21.6305457466      -33.6369446635  SOLV      491             0.0000000000
      1588       503  TIP3      OH2             4.3722496015      -20.9070457466      -33.8324346635  SOLV      492             0.0000000000
      1589       503  TIP3      H1              5.2465896015      -20.5186157466      -33.8620046635  SOLV      492             0.0000000000
      1590       503  TIP3      H2              4.2363296015      -21.1222657466      -32.9097146635  SOLV      492             0.0000000000
      1591       504  TIP3      OH2            11.2823496015      -20.8512857466      -36.4907646635  SOLV      493             0.0000000000
      1592       504  TIP3      H1             10.5794596015      -20.2363657466      -36.7006246635  SOLV      493             0.0000000000
      1593       504  TIP3      H2             10.8374896015      -21.6886157466      -36.3596746635  SOLV      493             0.0000000000
      1594       505  TIP3      OH2            -1.4697203985       -5.0877257466      -36.9446246635  SOLV      494             0.0000000000
      1595       505  TIP3      H1             -2.1547303985       -5.1258357466      -37.6121146635  SOLV      494             0.0000000000
      1596       505  TIP3      H2             -1.4660003985       -4.1749657466      -36.6564146635  SOLV      494             0.0000000000
      1597       506  TIP3      OH2             5.5162496015      -18.8266457466      -36.9426746635  SOLV      495             0.0000000000
      1598       506  TIP3      H1              5.6943796015      -19.4733257466      -36.2598146635  SOLV      495             0.0000000000
      1599       506  TIP3      H2              5.4628696015      -17.9928757466      -36.4755646635  SOLV      495             0.0000000000
      1600       507  TIP3      OH2             7.3946296015       -3.8782357466      -38.5470046635  SOLV      496             0.0000000000
      1601       507  TIP3      H1              8.2606496015       -3.5114957466      -38.7251846635  SOLV      496             0.0000000000
      1602       507  TIP3      H2              7.1479096015       -4.3174357466      -39.3609246635  SOLV      496             0.0000000000
      1603       508  TIP3      OH2            14.1035896015       -4.3152057466      -35.8678946635  SOLV      497             0.0000000000
      1604       508  TIP3      H1             13.9092996015       -5.0629957466      -36.4329346635  SOLV      497             0.0000000000
      1605       508  TIP3      H2             14.0645996015       -3.5571957466      -36.4511046635  SOLV      497             0.0000000000
      1606       509  TIP3      OH2            -0.2492103985      -20.3195657466      -24.1281246635  SOLV      498             0.0000000000
      1607       509  TIP3      H1             -0.6153903985      -21.0853057466      -23.6856546635  SOLV      498             0.0000000000
      1608       509  TIP3      H2              0.6636396015      -20.2905457466      -23.8416146635  SOLV      498             0.0000000000
      1609       510  TIP3      OH2             1.7238696015      -20.9691257466      -22.5924146635  SOLV      499             0.0000000000
      1610       510  TIP3      H1              2.6222296015      -21.2431057466      -22.7770746635  SOLV      499             0.0000000000
      1611       510  TIP3      H2              1.3371796015      -21.7115257466      -22.1281546635  SOLV      499             0.0000000000
      1612       511  TIP3      OH2             0.3483996015       -4.1676457466      -39.9194146635  SOLV      500             0.0000000000
      1613       511  TIP3      H1              0.0808596015       -3.8813557466      -39.0461046635  SOLV      500             0.0000000000
      1614       511  TIP3      H2              1.1196596015       -4.7137257466      -39.7671646635  SOLV      500             0.0000000000
      1615       512  TIP3      OH2            10.1450996015      -21.6365957466      -22.4101346635  SOLV      501             0.0000000000
      1616       512  TIP3      H1             10.2218196015      -22.0625257466      -21.5563646635  SOLV      501             0.0000000000
      1617       512  TIP3      H2             11.0387596015      -21.6231257466      -22.7527846635  SOLV      501             0.0000000000
      1618       513  TIP3      OH2            13.3212096015       -5.5639657466      -23.7177146635  SOLV      502             0.0000000000
      1619       513  TIP3      H1             12.5393996015       -5.7501657466      -24.2376546635  SOLV      502             0.0000000000
      1620       513  TIP3      H2             13.2491996015       -4.6345357466      -23.5004646635  SOLV      502             0.0000000000
      1621       514  TIP3      OH2            27.7272496015      -11.6775257466      -33.6869946635  SOLV      503             0.0000000000
      1622       514  TIP3      H1             27.8163596015      -10.7337057466      -33.8192846635  SOLV      503             0.0000000000
      1623       514  TIP3      H2             27.0890096015      -11.9528857466      -34.3450546635  SOLV      503             0.0000000000
      1624       515  TIP3      OH2            26.6603796015      -12.4224557466      -30.2681746635  SOLV      504             0.0000000000
      1625       515  TIP3      H1             26.6221296015      -13.0688257466      -29.5632146635  SOLV      504             0.0000000000
      1626       515  TIP3      H2             26.3380296015      -12.8890157466      -31.0393046635  SOLV      504             0.0000000000
      1627       516  TIP3      OH2            19.0288796015      -12.8082457466      -28.6751846635  SOLV      505             0.0000000000
      1628       516  TIP3      H1             19.0700896015      -13.4339157466      -27.9519446635  SOLV      505             0.0000000000
      1629       516  TIP3      H2             19.7316496015      -12.1843857466      -28.4931446635  SOLV      505             0.0000000000
      1630       517  TIP3      OH2            30.3663996015       -9.4834157466      -31.9666646635  SOLV      506             0.0000000000
      1631       517  TIP3      H1             29.9256696015      -10.2038157466      -31.5161046635  SOLV      506             0.0000000000
      1632       517  TIP3      H2             30.3533696015       -8.7626957466      -31.3368946635  SOLV      506             0.0000000000
      1633       518  TIP3      OH2            19.9521896015       -8.3583557466      -30.1402746635  SOLV      507             0.0000000000
      1634       518  TIP3      H1             19.5827096015       -9.1603057466      -30.5098446635  SOLV      507             0.0000000000
      1635       518  TIP3      H2             20.8932996015       -8.5268657466      -30.0939346635  SOLV      507             0.0000000000
      1636       519  TIP3      OH2            16.5622396015      -14.6980957466      -34.7473946635  SOLV      508             0.0000000000
      1637       519  TIP3      H1             16.1145796015      -13.8522257466      -34.7657446635  SOLV      508             0.0000000000
      1638       519  TIP3      H2             16.0013596015      -15.2776757466      -35.2628846635  SOLV      508             0.0000000000
      1639       520  TIP3      OH2            17.2728496015      -12.5361357466      -32.6215946635  SOLV      509             0.0000000000
      1640       520  TIP3      H1             17.4861996015      -13.3059757466      -32.0942946635  SOLV      509             0.0000000000
      1641       520  TIP3      H2             18.0106096015      -12.4464657466      -33.2248346635  SOLV      509             0.0000000000
      1642       521  TIP3      OH2            25.0498196015       -9.9903157466      -29.8620746635  SOLV      510             0.0000000000
      1643       521  TIP3      H1             25.3536096015      -10.6761757466      -30.4566646635  SOLV      510             0.0000000000
      1644       521  TIP3      H2             25.7712196015       -9.8714457466      -29.2442746635  SOLV      510             0.0000000000
      1645       522  TIP3      OH2            28.1905196015      -15.5960757466      -29.5345946635  SOLV      511             0.0000000000
      1646       522  TIP3      H1             28.3331096015      -16.5423757466      -29.5144346635  SOLV      511             0.0000000000
      1647       522  TIP3      H2             28.0844196015      -15.3890957466      -30.4631046635  SOLV      511             0.0000000000
      1648       523  TIP3      OH2            21.3453496015      -17.4944357466      -32.2621146635  SOLV      512             0.0000000000
      1649       523  TIP3      H1             21.3884596015      -16.6345857466      -32.6804846635  SOLV      512             0.0000000000
      1650       523  TIP3      H2             20.8877596015      -18.0469657466      -32.8957946635  SOLV      512             0.0000000000
      1651       524  TIP3      OH2            17.9654996015      -15.0978557466      -31.4999746635  SOLV      513             0.0000000000
      1652       524  TIP3      H1             18.6191596015      -15.6476857466      -31.0679646635  SOLV      513             0.0000000000
      1653       524  TIP3      H2             17.9894296015      -15.3719557466      -32.4167746635  SOLV      513             0.0000000000
      1654       525  TIP3      OH2            23.1219496015      -13.5477257466      -32.2848246635  SOLV      514             0.0000000000
      1655       525  TIP3      H1             23.7380496015      -14.0741857466      -31.7754246635  SOLV      514             0.0000000000
      1656       525  TIP3      H2             22.5358296015      -14.1878557466      -32.6884646635  SOLV      514             0.0000000000
      1657       526  TIP3      OH2            20.1555396015      -18.5765957466      -28.1880346635  SOLV      515             0.0000000000
      1658       526  TIP3      H1             19.9367096015      -18.0465357466      -28.9544346635  SOLV      515             0.0000000000
      1659       526  TIP3      H2             19.4876296015      -18.3500457466      -27.5408946635  SOLV      515             0.0000000000
      1660       527  TIP3      OH2            22.7246796015      -10.9010257466      -27.9006646635  SOLV      516             0.0000000000
      1661       527  TIP3      H1             21.9845896015      -10.3028757466      -27.7971446635  SOLV      516             0.0000000000
      1662       527  TIP3      H2             23.4386296015      -10.3470657466      -28.2163046635  SOLV      516             0.0000000000
      1663       528  TIP3      OH2            19.7492696015      -16.6844157466      -30.2358146635  SOLV      517             0.0000000000
      1664       528  TIP3      H1             20.3628996015      -16.0516557466      -29.8625746635  SOLV      517             0.0000000000
      1665       528  TIP3      H2             20.2613396015      -17.1569157466      -30.8921246635  SOLV      517             0.0000000000
      1666       529  TIP3      OH2            21.1321096015       -8.9367257466      -27.1135146635  SOLV      518             0.0000000000
      1667       529  TIP3      H1             21.1268696015       -8.0573757466      -27.4915846635  SOLV      518             0.0000000000
      1668       529  TIP3      H2             20.2785196015       -9.0203157466      -26.6885246635  SOLV      518             0.0000000000
      1669       530  TIP3      OH2            17.2531996015       -9.2659357466      -36.3315846635  SOLV      519             0.0000000000
      1670       530  TIP3      H1             16.9812896015       -9.0368357466      -37.2202946635  SOLV      519             0.0000000000
      1671       530  TIP3      H2             17.2987696015       -8.4280557466      -35.8710546635  SOLV      519             0.0000000000
      1672       531  TIP3      OH2            30.8781696015       -7.6443457466      -29.6187346635  SOLV      520             0.0000000000
      1673       531  TIP3      H1             29.9365396015       -7.5859557466      -29.4570446635  SOLV      520             0.0000000000
      1674       531  TIP3      H2             31.1547796015       -6.7382957466      -29.7557646635  SOLV      520             0.0000000000
      1675       532  TIP3      OH2            31.9759596015       -9.3954757466      -26.0075646635  SOLV      521             0.0000000000
      1676       532  TIP3      H1             32.1155896015       -9.9872257466      -26.7468646635  SOLV      521             0.0000000000
      1677       532  TIP3      H2             32.1432396015       -8.5228857466      -26.3636846635  SOLV      521             0.0000000000
      1678       533  TIP3      OH2            33.8178896015      -13.0556757466      -27.9415246635  SOLV      522             0.0000000000
      1679       533  TIP3      H1             33.1652996015      -12.3611157466      -27.8524346635  SOLV      522             0.0000000000
      1680       533  TIP3      H2             34.2829196015      -12.8455857466      -28.7513646635  SOLV      522             0.0000000000
      1681       534  TIP3      OH2            29.7516196015      -14.0499357466      -26.2156746635  SOLV      523             0.0000000000
      1682       534  TIP3      H1             29.8315296015      -13.2864957466      -25.6438246635  SOLV      523             0.0000000000
      1683       534  TIP3      H2             29.1503896015      -13.7706957466      -26.9061646635  SOLV      523             0.0000000000
      1684       535  TIP3      OH2            22.8663896015       -8.1655157466      -30.7196546635  SOLV      524             0.0000000000
      1685       535  TIP3      H1             22.7715196015       -8.7442057466      -31.4761946635  SOLV      524             0.0000000000
      1686       535  TIP3      H2             23.5957496015       -8.5369457466      -30.2233746635  SOLV      524             0.0000000000
      1687       536  TIP3      OH2            21.8661896015      -12.8250157466      -29.7673746635  SOLV      525             0.0000000000
      1688       536  TIP3      H1             22.4314396015      -12.7035957466      -30.5302546635  SOLV      525             0.0000000000
      1689       536  TIP3      H2             22.1850796015      -12.1875157466      -29.1285246635  SOLV      525             0.0000000000
      1690       537  TIP3      OH2            28.1754096015       -7.3218257466      -29.0333246635  SOLV      526             0.0000000000
      1691       537  TIP3      H1             27.9350696015       -6.6595157466      -28.3854046635  SOLV      526             0.0000000000
      1692       537  TIP3      H2             27.9772296015       -8.1563057466      -28.6083646635  SOLV      526             0.0000000000
      1693       538  TIP3      OH2            22.7462596015       -8.4257457466      -25.0501846635  SOLV      527             0.0000000000
      1694       538  TIP3      H1             22.4350096015       -7.6434257466      -24.5948646635  SOLV      527             0.0000000000
      1695       538  TIP3      H2             22.0962796015       -8.5788357466      -25.7359846635  SOLV      527             0.0000000000
      1696       539  TIP3      OH2            19.6662496015      -12.2276357466      -25.8216146635  SOLV      528             0.0000000000
      1697       539  TIP3      H1             19.7365696015      -11.5769557466      -25.1231146635  SOLV      528             0.0000000000
      1698       539  TIP3      H2             18.7754696015      -12.1248857466      -26.1565246635  SOLV      528             0.0000000000
      1699       540  TIP3      OH2            20.9858496015       -6.3542457466      -24.2868046635  SOLV      529             0.0000000000
      1700       540  TIP3      H1             20.9933796015       -6.4902757466      -25.2342546635  SOLV      529             0.0000000000
      1701       540  TIP3      H2             20.0698896015       -6.4714357466      -24.0348046635  SOLV      529             0.0000000000
      1702       541  TIP3      OH2            16.5829196015      -10.1612257466      -26.9966146635  SOLV      530             0.0000000000
      1703       541  TIP3      H1             16.0817596015      -10.1892857466      -27.8116446635  SOLV      530             0.0000000000
      1704       541  TIP3      H2             16.5882896015      -11.0669057466      -26.6868846635  SOLV      530             0.0000000000
      1705       542  TIP3      OH2            16.3331896015       -7.3808457466      -30.1125946635  SOLV      531             0.0000000000
      1706       542  TIP3      H1             17.2792496015       -7.5251457466      -30.1316446635  SOLV      531             0.0000000000
      1707       542  TIP3      H2             16.2208196015       -6.5965657466      -29.5754746635  SOLV      531             0.0000000000
      1708       543  TIP3      OH2            34.5310396015       -6.7148757466      -24.4302246635  SOLV      532             0.0000000000
      1709       543  TIP3      H1             34.4817196015       -7.6700657466      -24.4674646635  SOLV      532             0.0000000000
      1710       543  TIP3      H2             33.7042696015       -6.4473457466      -24.0288446635  SOLV      532             0.0000000000
      1711       544  TIP3      OH2            25.5094396015       -7.1409557466      -25.5540846635  SOLV      533             0.0000000000
      1712       544  TIP3      H1             25.5968996015       -6.3144957466      -25.0791746635  SOLV      533             0.0000000000
      1713       544  TIP3      H2             24.6459496015       -7.4705757466      -25.3051546635  SOLV      533             0.0000000000
      1714       545  TIP3      OH2            19.5773996015       -4.5798857466      -33.9671246635  SOLV      534             0.0000000000
      1715       545  TIP3      H1             19.7294396015       -4.9278457466      -33.0884746635  SOLV      534             0.0000000000
      1716       545  TIP3      H2             18.7264396015       -4.9361557466      -34.2224046635  SOLV      534             0.0000000000
      1717       546  TIP3      OH2            31.6830196015      -15.2216257466      -23.9500046635  SOLV      535             0.0000000000
      1718       546  TIP3      H1             31.2756996015      -14.7410657466      -24.6706746635  SOLV      535             0.0000000000
      1719       546  TIP3      H2             31.7235896015      -16.1270257466      -24.2579246635  SOLV      535             0.0000000000
      1720       547  TIP3      OH2            18.8319696015       -8.8376857466      -25.9533346635  SOLV      536             0.0000000000
      1721       547  TIP3      H1             19.0480996015       -9.1991257466      -25.0937546635  SOLV      536             0.0000000000
      1722       547  TIP3      H2             17.9764396015       -9.2123057466      -26.1629846635  SOLV      536             0.0000000000
      1723       548  TIP3      OH2            21.4507696015      -20.3676357466      -29.9579146635  SOLV      537             0.0000000000
      1724       548  TIP3      H1             20.5891396015      -20.4548157466      -30.3656246635  SOLV      537             0.0000000000
      1725       548  TIP3      H2             21.4283396015      -19.5116257466      -29.5301546635  SOLV      537             0.0000000000
      1726       549  TIP3      OH2            26.1135496015      -20.6455957466      -26.5832146635  SOLV      538             0.0000000000
      1727       549  TIP3      H1             26.5338596015      -21.0608857466      -25.8301546635  SOLV      538             0.0000000000
      1728       549  TIP3      H2             25.1805096015      -20.8242657466      -26.4660146635  SOLV      538             0.0000000000
      1729       550  TIP3      OH2            29.4400396015      -16.8900757466      -25.7297646635  SOLV      539             0.0000000000
      1730       550  TIP3      H1             28.9259896015      -17.0158557466      -24.9321646635  SOLV      539             0.0000000000
      1731       550  TIP3      H2             29.2845096015      -15.9777657466      -25.9741446635  SOLV      539             0.0000000000
      1732       551  TIP3      OH2            21.5417796015      -15.4021857466      -28.8628946635  SOLV      540             0.0000000000
      1733       551  TIP3      H1             20.8999896015      -15.4424557466      -28.1538846635  SOLV      540             0.0000000000
      1734       551  TIP3      H2             21.5789796015      -14.4757157466      -29.1005946635  SOLV      540             0.0000000000
      1735       552  TIP3      OH2            21.5386896015      -15.1811757466      -33.9508946635  SOLV      541             0.0000000000
      1736       552  TIP3      H1             20.6459796015      -15.5215657466      -34.0095146635  SOLV      541             0.0000000000
      1737       552  TIP3      H2             21.9893496015      -15.5580857466      -34.7065746635  SOLV      541             0.0000000000
      1738       553  TIP3      OH2            26.1763996015      -14.5895057466      -23.6457446635  SOLV      542             0.0000000000
      1739       553  TIP3      H1             25.6137796015      -15.2943457466      -23.3249646635  SOLV      542             0.0000000000
      1740       553  TIP3      H2             27.0027396015      -14.7103157466      -23.1779846635  SOLV      542             0.0000000000
      1741       554  TIP3      OH2            19.2918296015      -15.0818357466      -26.9956946635  SOLV      543             0.0000000000
      1742       554  TIP3      H1             19.2537696015      -14.6816757466      -26.1269846635  SOLV      543             0.0000000000
      1743       554  TIP3      H2             18.8009396015      -15.8985957466      -26.9054046635  SOLV      543             0.0000000000
      1744       555  TIP3      OH2            15.8999096015      -17.9656557466      -33.1452246635  SOLV      544             0.0000000000
      1745       555  TIP3      H1             16.5306796015      -17.9944457466      -32.4258346635  SOLV      544             0.0000000000
      1746       555  TIP3      H2             16.3493396015      -18.3907857466      -33.8756346635  SOLV      544             0.0000000000
      1747       556  TIP3      OH2            27.3429296015      -13.6809757466      -27.6486046635  SOLV      545             0.0000000000
      1748       556  TIP3      H1             27.6664096015      -14.3120057466      -28.2915546635  SOLV      545             0.0000000000
      1749       556  TIP3      H2             26.9028596015      -14.2157557466      -26.9878646635  SOLV      545             0.0000000000
      1750       557  TIP3      OH2            18.9485596015      -16.1247957466      -34.0377246635  SOLV      546             0.0000000000
      1751       557  TIP3      H1             18.0593596015      -16.0252457466      -34.3777646635  SOLV      546             0.0000000000
      1752       557  TIP3      H2             19.2450496015      -16.9664957466      -34.3839346635  SOLV      546             0.0000000000
      1753       558  TIP3      OH2            31.8129196015       -2.8472557466      -23.3235446635  SOLV      547             0.0000000000
      1754       558  TIP3      H1             32.0127896015       -2.4230657466      -24.1580146635  SOLV      547             0.0000000000
      1755       558  TIP3      H2             32.4682896015       -2.5034357466      -22.7165046635  SOLV      547             0.0000000000
      1756       559  TIP3      OH2            19.4108996015      -10.3731257466      -23.7154946635  SOLV      548             0.0000000000
      1757       559  TIP3      H1             20.1431396015      -10.1185357466      -23.1540446635  SOLV      548             0.0000000000
      1758       559  TIP3      H2             18.6307696015      -10.1685857466      -23.1999546635  SOLV      548             0.0000000000
      1759       560  TIP3      OH2            25.4401896015      -14.9661257466      -30.9775246635  SOLV      549             0.0000000000
      1760       560  TIP3      H1             26.0045296015      -15.5124657466      -31.5245646635  SOLV      549             0.0000000000
      1761       560  TIP3      H2             25.2925296015      -15.4879357466      -30.1887646635  SOLV      549             0.0000000000
      1762       561  TIP3      OH2            24.0667796015      -16.5775157466      -28.5634846635  SOLV      550             0.0000000000
      1763       561  TIP3      H1             23.2313096015      -16.1235657466      -28.4532446635  SOLV      550             0.0000000000
      1764       561  TIP3      H2             24.5908396015      -16.3016657466      -27.8114946635  SOLV      550             0.0000000000
      1765       562  TIP3      OH2            31.7609296015      -11.2319257466      -28.0920846635  SOLV      551             0.0000000000
      1766       562  TIP3      H1             32.4028096015      -10.7752957466      -28.6358646635  SOLV      551             0.0000000000
      1767       562  TIP3      H2             30.9306196015      -11.1186857466      -28.5546746635  SOLV      551             0.0000000000
      1768       563  TIP3      OH2            26.1302496015      -10.1804157466      -25.6419346635  SOLV      552             0.0000000000
      1769       563  TIP3      H1             25.7848596015      -10.5621757466      -24.8349746635  SOLV      552             0.0000000000
      1770       563  TIP3      H2             25.9302596015       -9.2470557466      -25.5706446635  SOLV      552             0.0000000000
      1771       564  TIP3      OH2            19.7358696015      -11.0697457466      -31.1090546635  SOLV      553             0.0000000000
      1772       564  TIP3      H1             20.4805896015      -11.0721757466      -31.7104046635  SOLV      553             0.0000000000
      1773       564  TIP3      H2             19.8135296015      -11.8933657466      -30.6275446635  SOLV      553             0.0000000000
      1774       565  TIP3      OH2            16.7438396015      -12.6090557466      -25.7942046635  SOLV      554             0.0000000000
      1775       565  TIP3      H1             16.9666996015      -13.0270957466      -24.9624546635  SOLV      554             0.0000000000
      1776       565  TIP3      H2             16.1418496015      -13.2215557466      -26.2169246635  SOLV      554             0.0000000000
      1777       566  TIP3      OH2            23.7603296015      -13.0920657466      -23.5812346635  SOLV      555             0.0000000000
      1778       566  TIP3      H1             23.4644096015      -13.2577657466      -24.4763246635  SOLV      555             0.0000000000
      1779       566  TIP3      H2             24.6918496015      -13.3120357466      -23.5918446635  SOLV      555             0.0000000000
      1780       567  TIP3      OH2            28.3806096015       -7.7188657466      -25.6914346635  SOLV      556             0.0000000000
      1781       567  TIP3      H1             27.4800396015       -7.5356057466      -25.9590446635  SOLV      556             0.0000000000
      1782       567  TIP3      H2             28.4147196015       -7.4599357466      -24.7705546635  SOLV      556             0.0000000000
      1783       568  TIP3      OH2            34.0751396015       -9.6739057466      -24.4870246635  SOLV      557             0.0000000000
      1784       568  TIP3      H1             33.2239896015       -9.4355257466      -24.8543846635  SOLV      557             0.0000000000
      1785       568  TIP3      H2             34.6654796015       -9.6905857466      -25.2403146635  SOLV      557             0.0000000000
      1786       569  TIP3      OH2            29.5674996015      -11.8800857466      -29.8377746635  SOLV      558             0.0000000000
      1787       569  TIP3      H1             28.6391896015      -12.1118957466      -29.8648446635  SOLV      558             0.0000000000
      1788       569  TIP3      H2             30.0186096015      -12.6571057466      -30.1678946635  SOLV      558             0.0000000000
      1789       570  TIP3      OH2            22.1108096015       -7.5519257466      -33.7049046635  SOLV      559             0.0000000000
      1790       570  TIP3      H1             22.6380296015       -6.7784857466      -33.9050246635  SOLV      559             0.0000000000
      1791       570  TIP3      H2             21.2306596015       -7.3270057466      -34.0065046635  SOLV      559             0.0000000000
      1792       571  TIP3      OH2            17.8655796015      -12.6895157466      -39.1176646635  SOLV      560             0.0000000000
      1793       571  TIP3      H1             18.4815696015      -12.0627957466      -38.7381846635  SOLV      560             0.0000000000
      1794       571  TIP3      H2             17.0038396015      -12.3735357466      -38.8460146635  SOLV      560             0.0000000000
      1795       572  TIP3      OH2            23.5380396015       -9.8889357466      -34.1284746635  SOLV      561             0.0000000000
      1796       572  TIP3      H1             23.2970396015       -8.9634957466      -34.0869446635  SOLV      561             0.0000000000
      1797       572  TIP3      H2             22.7973996015      -10.3478057466      -33.7320846635  SOLV      561             0.0000000000
      1798       573  TIP3      OH2            24.0526996015       -5.7395757466      -27.8133646635  SOLV      562             0.0000000000
      1799       573  TIP3      H1             24.4151696015       -4.8850157466      -28.0469246635  SOLV      562             0.0000000000
      1800       573  TIP3      H2             24.5842196015       -6.0314157466      -27.0727346635  SOLV      562             0.0000000000
      1801       574  TIP3      OH2            22.2211196015       -4.8671757466      -34.5832546635  SOLV      563             0.0000000000
      1802       574  TIP3      H1             21.2711696015       -4.7614357466      -34.5319246635  SOLV      563             0.0000000000
      1803       574  TIP3      H2             22.5729296015       -4.0464357466      -34.2385046635  SOLV      563             0.0000000000
      1804       575  TIP3      OH2            27.5967796015       -9.6405057466      -28.1128046635  SOLV      564             0.0000000000
      1805       575  TIP3      H1             27.1709096015       -9.8683357466      -27.2864046635  SOLV      564             0.0000000000
      1806       575  TIP3      H2             28.1773596015      -10.3793257466      -28.2952746635  SOLV      564             0.0000000000
      1807       576  TIP3      OH2            30.2551996015       -5.0885557466      -25.6433246635  SOLV      565             0.0000000000
      1808       576  TIP3      H1             29.6535196015       -5.6442657466      -26.1386946635  SOLV      565             0.0000000000
      1809       576  TIP3      H2             30.5365696015       -4.4215757466      -26.2695846635  SOLV      565             0.0000000000
      1810       577  TIP3      OH2            18.3777896015      -17.8557857466      -26.2360646635  SOLV      566             0.0000000000
      1811       577  TIP3      H1             17.4850196015      -17.5172457466      -26.3036646635  SOLV      566             0.0000000000
      1812       577  TIP3      H2             18.2790696015      -18.7111757466      -25.8179846635  SOLV      566             0.0000000000
      1813       578  TIP3      OH2            18.0289896015       -6.0513457466      -27.8011246635  SOLV      567             0.0000000000
      1814       578  TIP3      H1             18.2460196015       -6.9831057466      -27.8321546635  SOLV      567             0.0000000000
      1815       578  TIP3      H2             18.2753396015       -5.7768457466      -26.9178446635  SOLV      567             0.0000000000
      1816       579  TIP3      OH2            19.2806196015      -10.7771357466      -37.6251046635  SOLV      568             0.0000000000
      1817       579  TIP3      H1             18.5945496015      -10.4248857466      -37.0581346635  SOLV      568             0.0000000000
      1818       579  TIP3      H2             19.8034096015      -10.0141757466      -37.8716746635  SOLV      568             0.0000000000
      1819       580  TIP3      OH2            27.1121296015      -18.1147557466      -27.3462046635  SOLV      569             0.0000000000
      1820       580  TIP3      H1             27.8109196015      -18.0408857466      -26.6962346635  SOLV      569             0.0000000000
      1821       580  TIP3      H2             26.7312696015      -18.9792557466      -27.1919146635  SOLV      569             0.0000000000
      1822       581  TIP3      OH2            25.6322496015      -15.7484357466      -26.2294746635  SOLV      570             0.0000000000
      1823       581  TIP3      H1             25.7512796015      -15.1748957466      -25.4724346635  SOLV      570             0.0000000000
      1824       581  TIP3      H2             26.2877096015      -16.4364957466      -26.1146946635  SOLV      570             0.0000000000
      1825       582  TIP3      OH2            31.8368296015      -17.8414057466      -25.3945046635  SOLV      571             0.0000000000
      1826       582  TIP3      H1             30.9204096015      -17.5792357466      -25.4821346635  SOLV      571             0.0000000000
      1827       582  TIP3      H2             32.1723296015      -17.8445057466      -26.2909746635  SOLV      571             0.0000000000
      1828       583  TIP3      OH2            30.4389296015      -14.0913057466      -31.2987746635  SOLV      572             0.0000000000
      1829       583  TIP3      H1             29.6413696015      -14.5062857466      -31.6272746635  SOLV      572             0.0000000000
      1830       583  TIP3      H2             30.8840396015      -14.7819357466      -30.8077246635  SOLV      572             0.0000000000
      1831       584  TIP3      OH2            19.0206296015      -20.7172857466      -30.9392846635  SOLV      573             0.0000000000
      1832       584  TIP3      H1             18.7916096015      -20.6580357466      -31.8667846635  SOLV      573             0.0000000000
      1833       584  TIP3      H2             18.5779696015      -21.5087357466      -30.6328746635  SOLV      573             0.0000000000
      1834       585  TIP3      OH2            17.9509596015       -6.7765757466      -34.7787046635  SOLV      574             0.0000000000
      1835       585  TIP3      H1             17.1188196015       -6.3043057466      -34.7515646635  SOLV      574             0.0000000000
      1836       585  TIP3      H2             18.4967896015       -6.2668157466      -35.3773946635  SOLV      574             0.0000000000
      1837       586  TIP3      OH2            17.2393296015       -4.1642057466      -23.4489046635  SOLV      575             0.0000000000
      1838       586  TIP3      H1             17.7795496015       -4.3808057466      -22.6889846635  SOLV      575             0.0000000000
      1839       586  TIP3      H2             16.7581296015       -4.9696057466      -23.6386546635  SOLV      575             0.0000000000
      1840       587  TIP3      OH2            21.8366696015       -5.2447657466      -21.8284846635  SOLV      576             0.0000000000
      1841       587  TIP3      H1             22.6043896015       -5.7036857466      -21.4875646635  SOLV      576             0.0000000000
      1842       587  TIP3      H2             21.8152896015       -5.4707857466      -22.7583646635  SOLV      576             0.0000000000
      1843       588  TIP3      OH2            28.4135396015       -6.8646557466      -23.0993346635  SOLV      577             0.0000000000
      1844       588  TIP3      H1             28.0624896015       -7.7213557466      -22.8562946635  SOLV      577             0.0000000000
      1845       588  TIP3      H2             29.1398596015       -6.7219857466      -22.4924346635  SOLV      577             0.0000000000
      1846       589  TIP3      OH2            17.1462796015      -10.3537957466      -22.4944746635  SOLV      578             0.0000000000
      1847       589  TIP3      H1             17.2903296015      -11.2557257466      -22.7808046635  SOLV      578             0.0000000000
      1848       589  TIP3      H2             16.3740196015      -10.0675857466      -22.9822446635  SOLV      578             0.0000000000
      1849       590  TIP3      OH2            23.8018896015      -10.3839857466      -23.0618346635  SOLV      579             0.0000000000
      1850       590  TIP3      H1             23.4732696015      -10.1131757466      -23.9190946635  SOLV      579             0.0000000000
      1851       590  TIP3      H2             23.9537096015      -11.3250057466      -23.1493346635  SOLV      579             0.0000000000
      1852       591  TIP3      OH2            29.5364096015      -10.4682557466      -25.6786046635  SOLV      580             0.0000000000
      1853       591  TIP3      H1             30.2818896015       -9.8798857466      -25.7982046635  SOLV      580             0.0000000000
      1854       591  TIP3      H2             28.7790896015       -9.8862857466      -25.6152946635  SOLV      580             0.0000000000
      1855       592  TIP3      OH2            17.9789296015      -13.1534657466      -23.0745446635  SOLV      581             0.0000000000
      1856       592  TIP3      H1             18.3870496015      -14.0108057466      -23.1954846635  SOLV      581             0.0000000000
      1857       592  TIP3      H2             17.7186896015      -13.1393357466      -22.1535146635  SOLV      581             0.0000000000
      1858       593  TIP3      OH2            21.9259596015      -14.1448957466      -25.7002546635  SOLV      582             0.0000000000
      1859       593  TIP3      H1             21.3075696015      -13.4702357466      -25.4197846635  SOLV      582             0.0000000000
      1860       593  TIP3      H2             22.2700796015      -13.8235057466      -26.5336346635  SOLV      582             0.0000000000
      1861       594  TIP3      OH2            26.9457796015      -11.6733657466      -22.4227746635  SOLV      583             0.0000000000
      1862       594  TIP3      H1             27.8988996015      -11.5894557466      -22.4501746635  SOLV      583             0.0000000000
      1863       594  TIP3      H2             26.7852396015      -12.3851857466      -21.8032846635  SOLV      583             0.0000000000
      1864       595  TIP3      OH2            22.2653296015      -16.7898157466      -24.6179446635  SOLV      584             0.0000000000
      1865       595  TIP3      H1             22.4154196015      -17.5186857466      -25.2199746635  SOLV      584             0.0000000000
      1866       595  TIP3      H2             22.2675696015      -16.0126457466      -25.1767246635  SOLV      584             0.0000000000
      1867       596  TIP3      OH2            22.6778996015      -18.4202357466      -27.1252046635  SOLV      585             0.0000000000
      1868       596  TIP3      H1             23.2136496015      -17.9685657466      -27.7772746635  SOLV      585             0.0000000000
      1869       596  TIP3      H2             21.8258596015      -18.5282557466      -27.5477946635  SOLV      585             0.0000000000
      1870       597  TIP3      OH2            24.2597396015      -12.9806157466      -26.8856846635  SOLV      586             0.0000000000
      1871       597  TIP3      H1             25.0102196015      -13.1368657466      -27.4589046635  SOLV      586             0.0000000000
      1872       597  TIP3      H2             23.9205696015      -12.1289557466      -27.1611346635  SOLV      586             0.0000000000
      1873       598  TIP3      OH2            28.6753596015      -15.1654357466      -21.8571546635  SOLV      587             0.0000000000
      1874       598  TIP3      H1             28.8674896015      -16.0964957466      -21.9687046635  SOLV      587             0.0000000000
      1875       598  TIP3      H2             29.5329896015      -14.7404857466      -21.8676146635  SOLV      587             0.0000000000
      1876       599  TIP3      OH2            29.9920796015      -12.3769157466      -23.7798846635  SOLV      588             0.0000000000
      1877       599  TIP3      H1             29.7105796015      -11.6674557466      -24.3575046635  SOLV      588             0.0000000000
      1878       599  TIP3      H2             30.9345096015      -12.4496157466      -23.9307646635  SOLV      588             0.0000000000
      1879       600  TIP3      OH2            20.7439596015      -15.5914657466      -22.7063846635  SOLV      589             0.0000000000
      1880       600  TIP3      H1             19.9768596015      -16.1239857466      -22.9166246635  SOLV      589             0.0000000000
      1881       600  TIP3      H2             21.4228596015      -15.9014257466      -23.3057546635  SOLV      589             0.0000000000
      1882       601  TIP3      OH2            23.4834496015      -20.9636657466      -26.6938446635  SOLV      590             0.0000000000
      1883       601  TIP3      H1             23.3854096015      -20.0173457466      -26.7992246635  SOLV      590             0.0000000000
      1884       601  TIP3      H2             22.7410696015      -21.3362857466      -27.1694946635  SOLV      590             0.0000000000
      1885       602  TIP3      OH2            24.7474996015      -16.6421257466      -23.1300046635  SOLV      591             0.0000000000
      1886       602  TIP3      H1             24.5120396015      -16.8614557466      -22.2285146635  SOLV      591             0.0000000000
      1887       602  TIP3      H2             23.9641896015      -16.8490057466      -23.6397546635  SOLV      591             0.0000000000
      1888       603  TIP3      OH2            27.4631596015      -17.5147757466      -24.0546546635  SOLV      592             0.0000000000
      1889       603  TIP3      H1             26.5156996015      -17.4828057466      -23.9223246635  SOLV      592             0.0000000000
      1890       603  TIP3      H2             27.7758296015      -18.1400657466      -23.4008346635  SOLV      592             0.0000000000
      1891       604  TIP3      OH2            29.0973096015      -18.8806657466      -22.0494646635  SOLV      593             0.0000000000
      1892       604  TIP3      H1             29.0004896015      -19.8329357466      -22.0552746635  SOLV      593             0.0000000000
      1893       604  TIP3      H2             28.7756196015      -18.6119857466      -21.1889146635  SOLV      593             0.0000000000
      1894       605  TIP3      OH2            18.9242396015      -17.6710857466      -23.0019146635  SOLV      594             0.0000000000
      1895       605  TIP3      H1             19.1359796015      -18.3774757466      -23.6121646635  SOLV      594             0.0000000000
      1896       605  TIP3      H2             18.8129896015      -18.1084857466      -22.1577946635  SOLV      594             0.0000000000
      1897       606  TIP3      OH2            23.7052596015      -21.6699257466      -24.0225646635  SOLV      595             0.0000000000
      1898       606  TIP3      H1             24.4170996015      -22.3097057466      -24.0366546635  SOLV      595             0.0000000000
      1899       606  TIP3      H2             23.6042996015      -21.4030957466      -24.9362546635  SOLV      595             0.0000000000
      1900       607  TIP3      OH2            24.0590096015      -19.9870857466      -21.9689346635  SOLV      596             0.0000000000
      1901       607  TIP3      H1             23.9272296015      -20.4627057466      -22.7890846635  SOLV      596             0.0000000000
      1902       607  TIP3      H2             23.4597496015      -19.2427257466      -22.0242246635  SOLV      596             0.0000000000
      1903       608  TIP3      OH2            15.8227896015       -3.0748257466      -34.2323346635  SOLV      597             0.0000000000
      1904       608  TIP3      H1             15.1754996015       -3.5366557466      -34.7652146635  SOLV      597             0.0000000000
      1905       608  TIP3      H2             16.1772496015       -3.7464957466      -33.6497146635  SOLV      597             0.0000000000
      1906       609  TIP3      OH2            16.6927096015       -4.9941257466      -32.4277146635  SOLV      598             0.0000000000
      1907       609  TIP3      H1             16.3583896015       -5.8743957466      -32.2556946635  SOLV      598             0.0000000000
      1908       609  TIP3      H2             16.9149496015       -4.6486257466      -31.5631546635  SOLV      598             0.0000000000
      1909       610  TIP3      OH2            33.8044796015       -4.6173757466      -26.5253246635  SOLV      599             0.0000000000
      1910       610  TIP3      H1             33.3173496015       -5.3529657466      -26.8965846635  SOLV      599             0.0000000000
      1911       610  TIP3      H2             34.3537496015       -5.0109857466      -25.8473846635  SOLV      599             0.0000000000
      1912       611  TIP3      OH2            32.2552096015       -8.8275657466      -21.8872946635  SOLV      600             0.0000000000
      1913       611  TIP3      H1             31.3893196015       -8.9325957466      -21.4930646635  SOLV      600             0.0000000000
      1914       611  TIP3      H2             32.6317996015       -8.0692357466      -21.4408246635  SOLV      600             0.0000000000
      1915       612  TIP3      OH2            32.1960896015       -6.8549557466      -27.2948746635  SOLV      601             0.0000000000
      1916       612  TIP3      H1             31.5486196015       -6.5298057466      -26.6693546635  SOLV      601             0.0000000000
      1917       612  TIP3      H2             31.6784896015       -7.2951857466      -27.9690446635  SOLV      601             0.0000000000
      1918       613  TIP3      OH2            16.7726596015      -11.9185857466      -29.9762246635  SOLV      602             0.0000000000
      1919       613  TIP3      H1             16.9569496015      -12.0004157466      -30.9119346635  SOLV      602             0.0000000000
      1920       613  TIP3      H2             17.6219496015      -12.0428857466      -29.5525846635  SOLV      602             0.0000000000
      1921       614  TIP3      OH2            32.5937096015      -12.0264757466      -24.3477746635  SOLV      603             0.0000000000
      1922       614  TIP3      H1             33.1764396015      -12.7612457466      -24.1560546635  SOLV      603             0.0000000000
      1923       614  TIP3      H2             33.1576396015      -11.2544457466      -24.3011946635  SOLV      603             0.0000000000
      1924       615  TIP3      OH2            34.0904196015      -14.1238957466      -23.6632346635  SOLV      604             0.0000000000
      1925       615  TIP3      H1             33.2270896015      -14.5026857466      -23.8287646635  SOLV      604             0.0000000000
      1926       615  TIP3      H2             34.6947896015      -14.8624157466      -23.7376546635  SOLV      604             0.0000000000
      1927       616  TIP3      OH2            32.0889196015      -15.0959557466      -27.3122646635  SOLV      605             0.0000000000
      1928       616  TIP3      H1             31.2460496015      -14.8279157466      -26.9462846635  SOLV      605             0.0000000000
      1929       616  TIP3      H2             32.5313496015      -14.2737657466      -27.5231546635  SOLV      605             0.0000000000
      1930       617  TIP3      OH2            16.3701396015      -16.6480857466      -23.8353446635  SOLV      606             0.0000000000
      1931       617  TIP3      H1             17.2896296015      -16.7702557466      -23.5990346635  SOLV      606             0.0000000000
      1932       617  TIP3      H2             15.9205896015      -17.3981157466      -23.4459946635  SOLV      606             0.0000000000
      1933       618  TIP3      OH2            17.5913896015      -18.3359257466      -30.9440546635  SOLV      607             0.0000000000
      1934       618  TIP3      H1             18.0365496015      -19.1276757466      -30.6420846635  SOLV      607             0.0000000000
      1935       618  TIP3      H2             18.0576896015      -17.6194057466      -30.5134946635  SOLV      607             0.0000000000
      1936       619  TIP3      OH2            15.8954196015      -15.3366257466      -29.8750346635  SOLV      608             0.0000000000
      1937       619  TIP3      H1             16.3873996015      -15.5575757466      -30.6658346635  SOLV      608             0.0000000000
      1938       619  TIP3      H2             16.2575096015      -14.4962857466      -29.5940846635  SOLV      608             0.0000000000
      1939       620  TIP3      OH2            16.1726096015      -20.3408157466      -27.4765446635  SOLV      609             0.0000000000
      1940       620  TIP3      H1             15.5076596015      -20.5867857466      -26.8334546635  SOLV      609             0.0000000000
      1941       620  TIP3      H2             15.7297396015      -19.7187757466      -28.0537446635  SOLV      609             0.0000000000
      1942       621  TIP3      OH2            18.3645396015       -7.1654057466      -23.3319646635  SOLV      610             0.0000000000
      1943       621  TIP3      H1             17.5437896015       -6.9907557466      -23.7924946635  SOLV      610             0.0000000000
      1944       621  TIP3      H2             18.1123196015       -7.2389357466      -22.4115246635  SOLV      610             0.0000000000
      1945       622  TIP3      OH2            21.3188296015       -6.1912857466      -27.0735646635  SOLV      611             0.0000000000
      1946       622  TIP3      H1             20.8939396015       -5.3814357466      -27.3561046635  SOLV      611             0.0000000000
      1947       622  TIP3      H2             22.2231096015       -6.1058757466      -27.3755846635  SOLV      611             0.0000000000
      1948       623  TIP3      OH2            25.6299696015       -4.7922857466      -24.1141946635  SOLV      612             0.0000000000
      1949       623  TIP3      H1             25.8147196015       -5.1256757466      -23.2361646635  SOLV      612             0.0000000000
      1950       623  TIP3      H2             26.4764196015       -4.4824257466      -24.4362746635  SOLV      612             0.0000000000
      1951       624  TIP3      OH2            27.9750096015       -3.5063957466      -24.8700546635  SOLV      613             0.0000000000
      1952       624  TIP3      H1             28.6518996015       -4.1391657466      -25.1101346635  SOLV      613             0.0000000000
      1953       624  TIP3      H2             28.2968896015       -3.1053457466      -24.0627246635  SOLV      613             0.0000000000
      1954       625  TIP3      OH2            18.7204996015       -2.9348957466      -27.0260346635  SOLV      614             0.0000000000
      1955       625  TIP3      H1             18.0001396015       -2.4947957466      -27.4772646635  SOLV      614             0.0000000000
      1956       625  TIP3      H2             18.3548996015       -3.1854257466      -26.1776346635  SOLV      614             0.0000000000
      1957       626  TIP3      OH2            21.1877596015       -3.3345057466      -27.9963146635  SOLV      615             0.0000000000
      1958       626  TIP3      H1             20.3229796015       -3.2626557466      -27.5923046635  SOLV      615             0.0000000000
      1959       626  TIP3      H2             21.1326596015       -2.7877757466      -28.7800646635  SOLV      615             0.0000000000
      1960       627  TIP3      OH2            25.8983196015       -3.4466157466      -28.8207146635  SOLV      616             0.0000000000
      1961       627  TIP3      H1             25.4417196015       -2.9176457466      -29.4748746635  SOLV      616             0.0000000000
      1962       627  TIP3      H2             26.0611196015       -2.8434757466      -28.0954846635  SOLV      616             0.0000000000
      1963       628  TIP3      OH2            28.2259496015       -4.5686557466      -27.8756846635  SOLV      617             0.0000000000
      1964       628  TIP3      H1             27.3213196015       -4.4036357466      -28.1414746635  SOLV      617             0.0000000000
      1965       628  TIP3      H2             28.6548096015       -3.7154357466      -27.9413446635  SOLV      617             0.0000000000
      1966       629  TIP3      OH2            30.8301396015       -2.9987457466      -27.5809046635  SOLV      618             0.0000000000
      1967       629  TIP3      H1             30.6483396015       -2.0828557466      -27.7914146635  SOLV      618             0.0000000000
      1968       629  TIP3      H2             31.0069196015       -3.4090357466      -28.4274446635  SOLV      618             0.0000000000
      1969       630  TIP3      OH2            18.1353096015       -4.3116457466      -30.1158546635  SOLV      619             0.0000000000
      1970       630  TIP3      H1             18.1169096015       -4.7371357466      -29.2586246635  SOLV      619             0.0000000000
      1971       630  TIP3      H2             18.9400996015       -4.6301457466      -30.5246346635  SOLV      619             0.0000000000
      1972       631  TIP3      OH2            20.2766196015       -5.6017757466      -31.4608646635  SOLV      620             0.0000000000
      1973       631  TIP3      H1             20.0576896015       -6.5180357466      -31.2912646635  SOLV      620             0.0000000000
      1974       631  TIP3      H2             21.1008396015       -5.4617357466      -30.9947246635  SOLV      620             0.0000000000
      1975       632  TIP3      OH2            22.8138696015       -5.1318457466      -30.6120646635  SOLV      621             0.0000000000
      1976       632  TIP3      H1             23.0264396015       -6.0199457466      -30.8989746635  SOLV      621             0.0000000000
      1977       632  TIP3      H2             22.8783796015       -5.1660757466      -29.6576646635  SOLV      621             0.0000000000
      1978       633  TIP3      OH2            17.3862796015       -5.0877257466      -36.9446246635  SOLV      622             0.0000000000
      1979       633  TIP3      H1             16.7012696015       -5.1258357466      -37.6121146635  SOLV      622             0.0000000000
      1980       633  TIP3      H2             17.3899996015       -4.1749657466      -36.6564146635  SOLV      622             0.0000000000
      1981       634  TIP3      OH2            18.6067896015      -20.3195657466      -24.1281246635  SOLV      623             0.0000000000
      1982       634  TIP3      H1             18.2406096015      -21.0853057466      -23.6856546635  SOLV      623             0.0000000000
      1983       634  TIP3      H2             19.5196396015      -20.2905457466      -23.8416146635  SOLV      623             0.0000000000
      1984       635  TIP3      OH2            20.5798696015      -20.9691257466      -22.5924146635  SOLV      624             0.0000000000
      1985       635  TIP3      H1             21.4782296015      -21.2431057466      -22.7770746635  SOLV      624             0.0000000000
      1986       635  TIP3      H2             20.1931796015      -21.7115257466      -22.1281546635  SOLV      624             0.0000000000
      1987       636  TIP3      OH2            29.0010996015      -21.6365957466      -22.4101346635  SOLV      625             0.0000000000
      1988       636  TIP3      H1             29.0778196015      -22.0625257466      -21.5563646635  SOLV      625             0.0000000000
      1989       636  TIP3      H2             29.8947596015      -21.6231257466      -22.7527846635  SOLV      625             0.0000000000
      1990       637  TIP3      OH2            32.1772096015       -5.5639657466      -23.7177146635  SOLV      626             0.0000000000
      1991       637  TIP3      H1             31.3953996015       -5.7501657466      -24.2376546635  SOLV      626             0.0000000000
      1992       637  TIP3      H2             32.1051996015       -4.6345357466      -23.5004646635  SOLV      626             0.0000000000
      1993       638  TIP3      OH2            35.4389196015      -10.1612257466      -26.9966146635  SOLV      627             0.0000000000
      1994       638  TIP3      H1             34.9377596015      -10.1892857466      -27.8116446635  SOLV      627             0.0000000000
      1995       638  TIP3      H2             35.4442896015      -11.0669057466      -26.6868846635  SOLV      627             0.0000000000
      1996       639  TIP3      OH2            36.0953296015       -4.1642057466      -23.4489046635  SOLV      628             0.0000000000
      1997       639  TIP3      H1             36.6355496015       -4.3808057466      -22.6889846635  SOLV      628             0.0000000000
      1998       639  TIP3      H2             35.6141296015       -4.9696057466      -23.6386546635  SOLV      628             0.0000000000
      1999       640  TIP3      OH2            37.2205396015       -7.1654057466      -23.3319646635  SOLV      629             0.0000000000
      2000       640  TIP3      H1             36.3997896015       -6.9907557466      -23.7924946635  SOLV      629             0.0000000000
      2001       640  TIP3      H2             36.9683196015       -7.2389357466      -22.4115246635  SOLV      629             0.0000000000
      2002       641  TIP3      OH2           -29.9076203985        6.4335442534      -30.2681746635  SOLV      630             0.0000000000
      2003       641  TIP3      H1            -29.9458703985        5.7871742534      -29.5632146635  SOLV      630             0.0000000000
      2004       641  TIP3      H2            -30.2299703985        5.9669842534      -31.0393046635  SOLV      630             0.0000000000
      2005       642  TIP3      OH2           -26.2016003985        9.3725842534      -31.9666646635  SOLV      631             0.0000000000
      2006       642  TIP3      H1            -26.6423303985        8.6521842534      -31.5161046635  SOLV      631             0.0000000000
      2007       642  TIP3      H2            -26.2146303985       10.0933042534      -31.3368946635  SOLV      631             0.0000000000
      2008       643  TIP3      OH2           -29.0900503985       14.4767542534      -31.7546246635  SOLV      632             0.0000000000
      2009       643  TIP3      H1            -28.4704103985       13.8002242534      -32.0277046635  SOLV      632             0.0000000000
      2010       643  TIP3      H2            -29.2983103985       14.2588342534      -30.8461346635  SOLV      632             0.0000000000
      2011       644  TIP3      OH2           -31.5181803985        8.8656842534      -29.8620746635  SOLV      633             0.0000000000
      2012       644  TIP3      H1            -31.2143903985        8.1798242534      -30.4566646635  SOLV      633             0.0000000000
      2013       644  TIP3      H2            -30.7967803985        8.9845542534      -29.2442746635  SOLV      633             0.0000000000
      2014       645  TIP3      OH2           -22.8552003985        0.4672142534      -29.0014546635  SOLV      634             0.0000000000
      2015       645  TIP3      H1            -22.8059803985        1.0773342534      -28.2655446635  SOLV      634             0.0000000000
      2016       645  TIP3      H2            -22.4296903985        0.9283042534      -29.7243446635  SOLV      634             0.0000000000
      2017       646  TIP3      OH2           -28.3774803985        3.2599242534      -29.5345946635  SOLV      635             0.0000000000
      2018       646  TIP3      H1            -28.2348903985        2.3136242534      -29.5144346635  SOLV      635             0.0000000000
      2019       646  TIP3      H2            -28.4835803985        3.4669042534      -30.4631046635  SOLV      635             0.0000000000
      2020       647  TIP3      OH2           -22.4637403985        1.9451342534      -26.7654746635  SOLV      636             0.0000000000
      2021       647  TIP3      H1            -23.1522803985        2.6032042534      -26.8608146635  SOLV      636             0.0000000000
      2022       647  TIP3      H2            -22.4482803985        1.7479242534      -25.8289346635  SOLV      636             0.0000000000
      2023       648  TIP3      OH2           -33.8433203985        7.9549742534      -27.9006646635  SOLV      637             0.0000000000
      2024       648  TIP3      H1            -34.5834103985        8.5531242534      -27.7971446635  SOLV      637             0.0000000000
      2025       648  TIP3      H2            -33.1293703985        8.5089342534      -28.2163046635  SOLV      637             0.0000000000
      2026       649  TIP3      OH2           -25.6898303985       11.2116542534      -29.6187346635  SOLV      638             0.0000000000
      2027       649  TIP3      H1            -26.6314603985       11.2700442534      -29.4570446635  SOLV      638             0.0000000000
      2028       649  TIP3      H2            -25.4132203985       12.1177042534      -29.7557646635  SOLV      638             0.0000000000
      2029       650  TIP3      OH2           -25.3891303985       -0.5018157466      -28.2013446635  SOLV      639             0.0000000000
      2030       650  TIP3      H1            -26.1252103985        0.1088942534      -28.2392146635  SOLV      639             0.0000000000
      2031       650  TIP3      H2            -24.7057303985       -0.0869157466      -28.7277046635  SOLV      639             0.0000000000
      2032       651  TIP3      OH2           -27.4377103985       12.9930042534      -32.9935746635  SOLV      640             0.0000000000
      2033       651  TIP3      H1            -27.0124803985       12.2857942534      -33.4786146635  SOLV      640             0.0000000000
      2034       651  TIP3      H2            -27.1207103985       13.7942742534      -33.4103546635  SOLV      640             0.0000000000
      2035       652  TIP3      OH2           -26.2780603985       10.8938542534      -34.4849146635  SOLV      641             0.0000000000
      2036       652  TIP3      H1            -26.5355803985       10.2038642534      -35.0963246635  SOLV      641             0.0000000000
      2037       652  TIP3      H2            -26.2069803985       10.4509742534      -33.6393246635  SOLV      641             0.0000000000
      2038       653  TIP3      OH2           -24.5920403985        9.4605242534      -26.0075646635  SOLV      642             0.0000000000
      2039       653  TIP3      H1            -24.4524103985        8.8687742534      -26.7468646635  SOLV      642             0.0000000000
      2040       653  TIP3      H2            -24.4247603985       10.3331142534      -26.3636846635  SOLV      642             0.0000000000
      2041       654  TIP3      OH2           -22.7501103985        5.8003242534      -27.9415246635  SOLV      643             0.0000000000
      2042       654  TIP3      H1            -23.4027003985        6.4948842534      -27.8524346635  SOLV      643             0.0000000000
      2043       654  TIP3      H2            -22.2850803985        6.0104142534      -28.7513646635  SOLV      643             0.0000000000
      2044       655  TIP3      OH2           -26.8163803985        4.8060642534      -26.2156746635  SOLV      644             0.0000000000
      2045       655  TIP3      H1            -26.7364703985        5.5695042534      -25.6438246635  SOLV      644             0.0000000000
      2046       655  TIP3      H2            -27.4176103985        5.0853042534      -26.9061646635  SOLV      644             0.0000000000
      2047       656  TIP3      OH2           -28.3925903985       11.5341742534      -29.0333246635  SOLV      645             0.0000000000
      2048       656  TIP3      H1            -28.6329303985       12.1964842534      -28.3854046635  SOLV      645             0.0000000000
      2049       656  TIP3      H2            -28.5907703985       10.6996942534      -28.6083646635  SOLV      645             0.0000000000
      2050       657  TIP3      OH2           -33.8217403985       10.4302542534      -25.0501846635  SOLV      646             0.0000000000
      2051       657  TIP3      H1            -34.1329903985       11.2125742534      -24.5948646635  SOLV      646             0.0000000000
      2052       657  TIP3      H2            -34.4717203985       10.2771642534      -25.7359846635  SOLV      646             0.0000000000
      2053       658  TIP3      OH2           -22.0369603985       12.1411242534      -24.4302246635  SOLV      647             0.0000000000
      2054       658  TIP3      H1            -22.0862803985       11.1859342534      -24.4674646635  SOLV      647             0.0000000000
      2055       658  TIP3      H2            -22.8637303985       12.4086542534      -24.0288446635  SOLV      647             0.0000000000
      2056       659  TIP3      OH2           -31.0585603985       11.7150442534      -25.5540846635  SOLV      648             0.0000000000
      2057       659  TIP3      H1            -30.9711003985       12.5415042534      -25.0791746635  SOLV      648             0.0000000000
      2058       659  TIP3      H2            -31.9220503985       11.3854242534      -25.3051546635  SOLV      648             0.0000000000
      2059       660  TIP3      OH2           -24.8849803985        3.6343742534      -23.9500046635  SOLV      649             0.0000000000
      2060       660  TIP3      H1            -25.2923003985        4.1149342534      -24.6706746635  SOLV      649             0.0000000000
      2061       660  TIP3      H2            -24.8444103985        2.7289742534      -24.2579246635  SOLV      649             0.0000000000
      2062       661  TIP3      OH2           -30.4544503985       -1.7895957466      -26.5832146635  SOLV      650             0.0000000000
      2063       661  TIP3      H1            -30.0341403985       -2.2048857466      -25.8301546635  SOLV      650             0.0000000000
      2064       661  TIP3      H2            -31.3874903985       -1.9682657466      -26.4660146635  SOLV      650             0.0000000000
      2065       662  TIP3      OH2           -27.1279603985        1.9659242534      -25.7297646635  SOLV      651             0.0000000000
      2066       662  TIP3      H1            -27.6420103985        1.8401442534      -24.9321646635  SOLV      651             0.0000000000
      2067       662  TIP3      H2            -27.2834903985        2.8782342534      -25.9741446635  SOLV      651             0.0000000000
      2068       663  TIP3      OH2           -30.3916003985        4.2664942534      -23.6457446635  SOLV      652             0.0000000000
      2069       663  TIP3      H1            -30.9542203985        3.5616542534      -23.3249646635  SOLV      652             0.0000000000
      2070       663  TIP3      H2            -29.5652603985        4.1456842534      -23.1779846635  SOLV      652             0.0000000000
      2071       664  TIP3      OH2           -29.2250703985        5.1750242534      -27.6486046635  SOLV      653             0.0000000000
      2072       664  TIP3      H1            -28.9015903985        4.5439942534      -28.2915546635  SOLV      653             0.0000000000
      2073       664  TIP3      H2            -29.6651403985        4.6402442534      -26.9878646635  SOLV      653             0.0000000000
      2074       665  TIP3      OH2           -24.7550803985       16.0087442534      -23.3235446635  SOLV      654             0.0000000000
      2075       665  TIP3      H1            -24.5552103985       16.4329342534      -24.1580146635  SOLV      654             0.0000000000
      2076       665  TIP3      H2            -24.0997103985       16.3525642534      -22.7165046635  SOLV      654             0.0000000000
      2077       666  TIP3      OH2           -24.8070703985        7.6240742534      -28.0920846635  SOLV      655             0.0000000000
      2078       666  TIP3      H1            -24.1651903985        8.0807042534      -28.6358646635  SOLV      655             0.0000000000
      2079       666  TIP3      H2            -25.6373803985        7.7373142534      -28.5546746635  SOLV      655             0.0000000000
      2080       667  TIP3      OH2           -30.4377503985        8.6755842534      -25.6419346635  SOLV      656             0.0000000000
      2081       667  TIP3      H1            -30.7831403985        8.2938242534      -24.8349746635  SOLV      656             0.0000000000
      2082       667  TIP3      H2            -30.6377403985        9.6089442534      -25.5706446635  SOLV      656             0.0000000000
      2083       668  TIP3      OH2           -32.8076703985        5.7639342534      -23.5812346635  SOLV      657             0.0000000000
      2084       668  TIP3      H1            -33.1035903985        5.5982342534      -24.4763246635  SOLV      657             0.0000000000
      2085       668  TIP3      H2            -31.8761503985        5.5439642534      -23.5918446635  SOLV      657             0.0000000000
      2086       669  TIP3      OH2           -28.1873903985       11.1371342534      -25.6914346635  SOLV      658             0.0000000000
      2087       669  TIP3      H1            -29.0879603985       11.3203942534      -25.9590446635  SOLV      658             0.0000000000
      2088       669  TIP3      H2            -28.1532803985       11.3960642534      -24.7705546635  SOLV      658             0.0000000000
      2089       670  TIP3      OH2           -22.4928603985        9.1820942534      -24.4870246635  SOLV      659             0.0000000000
      2090       670  TIP3      H1            -23.3440103985        9.4204742534      -24.8543846635  SOLV      659             0.0000000000
      2091       670  TIP3      H2            -21.9025203985        9.1654142534      -25.2403146635  SOLV      659             0.0000000000
      2092       671  TIP3      OH2           -27.0005003985        6.9759142534      -29.8377746635  SOLV      660             0.0000000000
      2093       671  TIP3      H1            -27.9288103985        6.7441042534      -29.8648446635  SOLV      660             0.0000000000
      2094       671  TIP3      H2            -26.5493903985        6.1988942534      -30.1678946635  SOLV      660             0.0000000000
      2095       672  TIP3      OH2           -32.5153003985       13.1164242534      -27.8133646635  SOLV      661             0.0000000000
      2096       672  TIP3      H1            -32.1528303985       13.9709842534      -28.0469246635  SOLV      661             0.0000000000
      2097       672  TIP3      H2            -31.9837803985       12.8245842534      -27.0727346635  SOLV      661             0.0000000000
      2098       673  TIP3      OH2           -28.9712203985        9.2154942534      -28.1128046635  SOLV      662             0.0000000000
      2099       673  TIP3      H1            -29.3970903985        8.9876642534      -27.2864046635  SOLV      662             0.0000000000
      2100       673  TIP3      H2            -28.3906403985        8.4766742534      -28.2952746635  SOLV      662             0.0000000000
      2101       674  TIP3      OH2           -26.3128003985       13.7674442534      -25.6433246635  SOLV      663             0.0000000000
      2102       674  TIP3      H1            -26.9144803985       13.2117342534      -26.1386946635  SOLV      663             0.0000000000
      2103       674  TIP3      H2            -26.0314303985       14.4344242534      -26.2695846635  SOLV      663             0.0000000000
      2104       675  TIP3      OH2           -29.4558703985        0.7412442534      -27.3462046635  SOLV      664             0.0000000000
      2105       675  TIP3      H1            -28.7570803985        0.8151142534      -26.6962346635  SOLV      664             0.0000000000
      2106       675  TIP3      H2            -29.8367303985       -0.1232557466      -27.1919146635  SOLV      664             0.0000000000
      2107       676  TIP3      OH2           -30.9357503985        3.1075642534      -26.2294746635  SOLV      665             0.0000000000
      2108       676  TIP3      H1            -30.8167203985        3.6811042534      -25.4724346635  SOLV      665             0.0000000000
      2109       676  TIP3      H2            -30.2802903985        2.4195042534      -26.1146946635  SOLV      665             0.0000000000
      2110       677  TIP3      OH2           -24.7311703985        1.0145942534      -25.3945046635  SOLV      666             0.0000000000
      2111       677  TIP3      H1            -25.6475903985        1.2767642534      -25.4821346635  SOLV      666             0.0000000000
      2112       677  TIP3      H2            -24.3956703985        1.0114942534      -26.2909746635  SOLV      666             0.0000000000
      2113       678  TIP3      OH2           -26.1290703985        4.7646942534      -31.2987746635  SOLV      667             0.0000000000
      2114       678  TIP3      H1            -26.9266303985        4.3497142534      -31.6272746635  SOLV      667             0.0000000000
      2115       678  TIP3      H2            -25.6839603985        4.0740642534      -30.8077246635  SOLV      667             0.0000000000
      2116       679  TIP3      OH2           -25.0426103985       14.0209442534      -29.6764246635  SOLV      668             0.0000000000
      2117       679  TIP3      H1            -25.1981803985       14.6993842534      -30.3334946635  SOLV      668             0.0000000000
      2118       679  TIP3      H2            -24.1099703985       14.0928742534      -29.4733646635  SOLV      668             0.0000000000
      2119       680  TIP3      OH2           -34.7313303985       13.6112342534      -21.8284846635  SOLV      669             0.0000000000
      2120       680  TIP3      H1            -33.9636103985       13.1523142534      -21.4875646635  SOLV      669             0.0000000000
      2121       680  TIP3      H2            -34.7527103985       13.3852142534      -22.7583646635  SOLV      669             0.0000000000
      2122       681  TIP3      OH2           -28.1544603985       11.9913442534      -23.0993346635  SOLV      670             0.0000000000
      2123       681  TIP3      H1            -28.5055103985       11.1346442534      -22.8562946635  SOLV      670             0.0000000000
      2124       681  TIP3      H2            -27.4281403985       12.1340142534      -22.4924346635  SOLV      670             0.0000000000
      2125       682  TIP3      OH2           -32.7661103985        8.4720142534      -23.0618346635  SOLV      671             0.0000000000
      2126       682  TIP3      H1            -33.0947303985        8.7428242534      -23.9190946635  SOLV      671             0.0000000000
      2127       682  TIP3      H2            -32.6142903985        7.5309942534      -23.1493346635  SOLV      671             0.0000000000
      2128       683  TIP3      OH2           -27.0315903985        8.3877442534      -25.6786046635  SOLV      672             0.0000000000
      2129       683  TIP3      H1            -26.2861103985        8.9761142534      -25.7982046635  SOLV      672             0.0000000000
      2130       683  TIP3      H2            -27.7889103985        8.9697142534      -25.6152946635  SOLV      672             0.0000000000
      2131       684  TIP3      OH2           -34.6420403985        4.7111042534      -25.7002546635  SOLV      673             0.0000000000
      2132       684  TIP3      H1            -35.2604303985        5.3857642534      -25.4197846635  SOLV      673             0.0000000000
      2133       684  TIP3      H2            -34.2979203985        5.0324942534      -26.5336346635  SOLV      673             0.0000000000
      2134       685  TIP3      OH2           -29.6222203985        7.1826342534      -22.4227746635  SOLV      674             0.0000000000
      2135       685  TIP3      H1            -28.6691003985        7.2665442534      -22.4501746635  SOLV      674             0.0000000000
      2136       685  TIP3      H2            -29.7827603985        6.4708142534      -21.8032846635  SOLV      674             0.0000000000
      2137       686  TIP3      OH2           -34.3026703985        2.0661842534      -24.6179446635  SOLV      675             0.0000000000
      2138       686  TIP3      H1            -34.1525803985        1.3373142534      -25.2199746635  SOLV      675             0.0000000000
      2139       686  TIP3      H2            -34.3004303985        2.8433542534      -25.1767246635  SOLV      675             0.0000000000
      2140       687  TIP3      OH2           -32.3082603985        5.8753842534      -26.8856846635  SOLV      676             0.0000000000
      2141       687  TIP3      H1            -31.5577803985        5.7191342534      -27.4589046635  SOLV      676             0.0000000000
      2142       687  TIP3      H2            -32.6474303985        6.7270442534      -27.1611346635  SOLV      676             0.0000000000
      2143       688  TIP3      OH2           -27.8926403985        3.6905642534      -21.8571546635  SOLV      677             0.0000000000
      2144       688  TIP3      H1            -27.7005103985        2.7595042534      -21.9687046635  SOLV      677             0.0000000000
      2145       688  TIP3      H2            -27.0350103985        4.1155142534      -21.8676146635  SOLV      677             0.0000000000
      2146       689  TIP3      OH2           -26.5759203985        6.4790842534      -23.7798846635  SOLV      678             0.0000000000
      2147       689  TIP3      H1            -26.8574203985        7.1885442534      -24.3575046635  SOLV      678             0.0000000000
      2148       689  TIP3      H2            -25.6334903985        6.4063842534      -23.9307646635  SOLV      678             0.0000000000
      2149       690  TIP3      OH2           -35.8240403985        3.2645342534      -22.7063846635  SOLV      679             0.0000000000
      2150       690  TIP3      H1            -36.5911403985        2.7320142534      -22.9166246635  SOLV      679             0.0000000000
      2151       690  TIP3      H2            -35.1451403985        2.9545742534      -23.3057546635  SOLV      679             0.0000000000
      2152       691  TIP3      OH2           -31.8205003985        2.2138742534      -23.1300046635  SOLV      680             0.0000000000
      2153       691  TIP3      H1            -32.0559603985        1.9945442534      -22.2285146635  SOLV      680             0.0000000000
      2154       691  TIP3      H2            -32.6038103985        2.0069942534      -23.6397546635  SOLV      680             0.0000000000
      2155       692  TIP3      OH2           -29.1048403985        1.3412242534      -24.0546546635  SOLV      681             0.0000000000
      2156       692  TIP3      H1            -30.0523003985        1.3731942534      -23.9223246635  SOLV      681             0.0000000000
      2157       692  TIP3      H2            -28.7921703985        0.7159342534      -23.4008346635  SOLV      681             0.0000000000
      2158       693  TIP3      OH2           -27.4706903985       -0.0246657466      -22.0494646635  SOLV      682             0.0000000000
      2159       693  TIP3      H1            -27.5675103985       -0.9769357466      -22.0552746635  SOLV      682             0.0000000000
      2160       693  TIP3      H2            -27.7923803985        0.2440142534      -21.1889146635  SOLV      682             0.0000000000
      2161       694  TIP3      OH2           -37.6437603985        1.1849142534      -23.0019146635  SOLV      683             0.0000000000
      2162       694  TIP3      H1            -37.4320203985        0.4785242534      -23.6121646635  SOLV      683             0.0000000000
      2163       694  TIP3      H2            -37.7550103985        0.7475142534      -22.1577946635  SOLV      683             0.0000000000
      2164       695  TIP3      OH2           -32.8627403985       -2.8139257466      -24.0225646635  SOLV      684             0.0000000000
      2165       695  TIP3      H1            -32.1509003985       -3.4537057466      -24.0366546635  SOLV      684             0.0000000000
      2166       695  TIP3      H2            -32.9637003985       -2.5470957466      -24.9362546635  SOLV      684             0.0000000000
      2167       696  TIP3      OH2           -32.5089903985       -1.1310857466      -21.9689346635  SOLV      685             0.0000000000
      2168       696  TIP3      H1            -32.6407703985       -1.6067057466      -22.7890846635  SOLV      685             0.0000000000
      2169       696  TIP3      H2            -33.1082503985       -0.3867257466      -22.0242246635  SOLV      685             0.0000000000
      2170       697  TIP3      OH2           -22.3268103985       14.6715142534      -29.4472346635  SOLV      686             0.0000000000
      2171       697  TIP3      H1            -22.3481403985       14.8563542534      -28.5082946635  SOLV      686             0.0000000000
      2172       697  TIP3      H2            -21.6361903985       15.2399142534      -29.7880946635  SOLV      686             0.0000000000
      2173       698  TIP3      OH2           -22.7635203985       14.2386242534      -26.5253246635  SOLV      687             0.0000000000
      2174       698  TIP3      H1            -23.2506503985       13.5030342534      -26.8965846635  SOLV      687             0.0000000000
      2175       698  TIP3      H2            -22.2142503985       13.8450142534      -25.8473846635  SOLV      687             0.0000000000
      2176       699  TIP3      OH2           -24.3127903985       10.0284342534      -21.8872946635  SOLV      688             0.0000000000
      2177       699  TIP3      H1            -25.1786803985        9.9234042534      -21.4930646635  SOLV      688             0.0000000000
      2178       699  TIP3      H2            -23.9362003985       10.7867642534      -21.4408246635  SOLV      688             0.0000000000
      2179       700  TIP3      OH2           -22.6172603985        6.3385442534      -34.5494746635  SOLV      689             0.0000000000
      2180       700  TIP3      H1            -23.3438003985        5.8588042534      -34.1517146635  SOLV      689             0.0000000000
      2181       700  TIP3      H2            -22.0359303985        6.5440142534      -33.8173146635  SOLV      689             0.0000000000
      2182       701  TIP3      OH2           -22.8581403985        9.1232942534      -29.6017146635  SOLV      690             0.0000000000
      2183       701  TIP3      H1            -22.0247203985        8.7452942534      -29.8823546635  SOLV      690             0.0000000000
      2184       701  TIP3      H2            -22.7461103985       10.0664142534      -29.7208046635  SOLV      690             0.0000000000
      2185       702  TIP3      OH2           -24.3719103985       12.0010442534      -27.2948746635  SOLV      691             0.0000000000
      2186       702  TIP3      H1            -25.0193803985       12.3261942534      -26.6693546635  SOLV      691             0.0000000000
      2187       702  TIP3      H2            -24.8895103985       11.5608142534      -27.9690446635  SOLV      691             0.0000000000
      2188       703  TIP3      OH2           -23.9742903985        6.8295242534      -24.3477746635  SOLV      692             0.0000000000
      2189       703  TIP3      H1            -23.3915603985        6.0947542534      -24.1560546635  SOLV      692             0.0000000000
      2190       703  TIP3      H2            -23.4103603985        7.6015542534      -24.3011946635  SOLV      692             0.0000000000
      2191       704  TIP3      OH2           -22.4775803985        4.7321042534      -23.6632346635  SOLV      693             0.0000000000
      2192       704  TIP3      H1            -23.3409103985        4.3533142534      -23.8287646635  SOLV      693             0.0000000000
      2193       704  TIP3      H2            -21.8732103985        3.9935842534      -23.7376546635  SOLV      693             0.0000000000
      2194       705  TIP3      OH2           -24.5082703985        3.0235142534      -30.0882046635  SOLV      694             0.0000000000
      2195       705  TIP3      H1            -23.5754703985        3.2355042534      -30.1226046635  SOLV      694             0.0000000000
      2196       705  TIP3      H2            -24.7435203985        3.1247242534      -29.1659046635  SOLV      694             0.0000000000
      2197       706  TIP3      OH2           -24.4790803985        3.7600442534      -27.3122646635  SOLV      695             0.0000000000
      2198       706  TIP3      H1            -25.3219503985        4.0280842534      -26.9462846635  SOLV      695             0.0000000000
      2199       706  TIP3      H2            -24.0366503985        4.5822342534      -27.5231546635  SOLV      695             0.0000000000
      2200       707  TIP3      OH2           -22.1959203985       -2.2599357466      -21.9587646635  SOLV      696             0.0000000000
      2201       707  TIP3      H1            -21.8462203985       -2.9135857466      -22.5642946635  SOLV      696             0.0000000000
      2202       707  TIP3      H2            -22.0489703985       -1.4225257466      -22.3985046635  SOLV      696             0.0000000000
      2203       708  TIP3      OH2           -22.6762003985       -0.1504757466      -23.6096346635  SOLV      697             0.0000000000
      2204       708  TIP3      H1            -23.5936303985        0.1202342534      -23.6452846635  SOLV      697             0.0000000000
      2205       708  TIP3      H2            -22.5532603985       -0.6856357466      -24.3936646635  SOLV      697             0.0000000000
      2206       709  TIP3      OH2           -30.9380303985       14.0637142534      -24.1141946635  SOLV      698             0.0000000000
      2207       709  TIP3      H1            -30.7532803985       13.7303242534      -23.2361646635  SOLV      698             0.0000000000
      2208       709  TIP3      H2            -30.0915803985       14.3735742534      -24.4362746635  SOLV      698             0.0000000000
      2209       710  TIP3      OH2           -23.6756103985       -2.0608457466      -25.7905546635  SOLV      699             0.0000000000
      2210       710  TIP3      H1            -24.4882603985       -1.7358157466      -26.1780846635  SOLV      699             0.0000000000
      2211       710  TIP3      H2            -23.4427603985       -2.8209957466      -26.3236446635  SOLV      699             0.0000000000
      2212       711  TIP3      OH2           -30.6696803985       15.4093842534      -28.8207146635  SOLV      700             0.0000000000
      2213       711  TIP3      H1            -31.1262803985       15.9383542534      -29.4748746635  SOLV      700             0.0000000000
      2214       711  TIP3      H2            -30.5068803985       16.0125242534      -28.0954846635  SOLV      700             0.0000000000
      2215       712  TIP3      OH2           -28.3420503985       14.2873442534      -27.8756846635  SOLV      701             0.0000000000
      2216       712  TIP3      H1            -29.2466803985       14.4523642534      -28.1414746635  SOLV      701             0.0000000000
      2217       712  TIP3      H2            -27.9131903985       15.1405642534      -27.9413446635  SOLV      701             0.0000000000
      2218       713  TIP3      OH2           -25.7378603985       15.8572542534      -27.5809046635  SOLV      702             0.0000000000
      2219       713  TIP3      H1            -25.9196603985       16.7731442534      -27.7914146635  SOLV      702             0.0000000000
      2220       713  TIP3      H2            -25.5610803985       15.4469642534      -28.4274446635  SOLV      702             0.0000000000
      2221       714  TIP3      OH2           -35.9881303985       -2.1131257466      -22.5924146635  SOLV      703             0.0000000000
      2222       714  TIP3      H1            -35.0897703985       -2.3871057466      -22.7770746635  SOLV      703             0.0000000000
      2223       714  TIP3      H2            -36.3748203985       -2.8555257466      -22.1281546635  SOLV      703             0.0000000000
      2224       715  TIP3      OH2           -27.5669003985       -2.7805957466      -22.4101346635  SOLV      704             0.0000000000
      2225       715  TIP3      H1            -27.4901803985       -3.2065257466      -21.5563646635  SOLV      704             0.0000000000
      2226       715  TIP3      H2            -26.6732403985       -2.7671257466      -22.7527846635  SOLV      704             0.0000000000
      2227       716  TIP3      OH2           -24.3907903985       13.2920342534      -23.7177146635  SOLV      705             0.0000000000
      2228       716  TIP3      H1            -25.1726003985       13.1058342534      -24.2376546635  SOLV      705             0.0000000000
      2229       716  TIP3      H2            -24.4628003985       14.2214642534      -23.5004646635  SOLV      705             0.0000000000
      2230       717  TIP3      OH2            -9.9847503985        7.1784742534      -33.6869946635  SOLV      706             0.0000000000
      2231       717  TIP3      H1             -9.8956403985        8.1222942534      -33.8192846635  SOLV      706             0.0000000000
      2232       717  TIP3      H2            -10.6229903985        6.9031142534      -34.3450546635  SOLV      706             0.0000000000
      2233       718  TIP3      OH2           -11.0516203985        6.4335442534      -30.2681746635  SOLV      707             0.0000000000
      2234       718  TIP3      H1            -11.0898703985        5.7871742534      -29.5632146635  SOLV      707             0.0000000000
      2235       718  TIP3      H2            -11.3739703985        5.9669842534      -31.0393046635  SOLV      707             0.0000000000
      2236       719  TIP3      OH2           -18.6831203985        6.0477542534      -28.6751846635  SOLV      708             0.0000000000
      2237       719  TIP3      H1            -18.6419103985        5.4220842534      -27.9519446635  SOLV      708             0.0000000000
      2238       719  TIP3      H2            -17.9803503985        6.6716142534      -28.4931446635  SOLV      708             0.0000000000
      2239       720  TIP3      OH2            -7.3456003985        9.3725842534      -31.9666646635  SOLV      709             0.0000000000
      2240       720  TIP3      H1             -7.7863303985        8.6521842534      -31.5161046635  SOLV      709             0.0000000000
      2241       720  TIP3      H2             -7.3586303985       10.0933042534      -31.3368946635  SOLV      709             0.0000000000
      2242       721  TIP3      OH2           -17.7598103985       10.4976442534      -30.1402746635  SOLV      710             0.0000000000
      2243       721  TIP3      H1            -18.1292903985        9.6956942534      -30.5098446635  SOLV      710             0.0000000000
      2244       721  TIP3      H2            -16.8187003985       10.3291342534      -30.0939346635  SOLV      710             0.0000000000
      2245       722  TIP3      OH2           -20.4391503985        6.3198642534      -32.6215946635  SOLV      711             0.0000000000
      2246       722  TIP3      H1            -20.2258003985        5.5500242534      -32.0942946635  SOLV      711             0.0000000000
      2247       722  TIP3      H2            -19.7013903985        6.4095342534      -33.2248346635  SOLV      711             0.0000000000
      2248       723  TIP3      OH2           -10.2340503985       14.4767542534      -31.7546246635  SOLV      712             0.0000000000
      2249       723  TIP3      H1             -9.6144103985       13.8002242534      -32.0277046635  SOLV      712             0.0000000000
      2250       723  TIP3      H2            -10.4423103985       14.2588342534      -30.8461346635  SOLV      712             0.0000000000
      2251       724  TIP3      OH2           -12.6621803985        8.8656842534      -29.8620746635  SOLV      713             0.0000000000
      2252       724  TIP3      H1            -12.3583903985        8.1798242534      -30.4566646635  SOLV      713             0.0000000000
      2253       724  TIP3      H2            -11.9407803985        8.9845542534      -29.2442746635  SOLV      713             0.0000000000
      2254       725  TIP3      OH2            -3.9992003985        0.4672142534      -29.0014546635  SOLV      714             0.0000000000
      2255       725  TIP3      H1             -3.9499803985        1.0773342534      -28.2655446635  SOLV      714             0.0000000000
      2256       725  TIP3      H2             -3.5736903985        0.9283042534      -29.7243446635  SOLV      714             0.0000000000
      2257       726  TIP3      OH2            -9.5214803985        3.2599242534      -29.5345946635  SOLV      715             0.0000000000
      2258       726  TIP3      H1             -9.3788903985        2.3136242534      -29.5144346635  SOLV      715             0.0000000000
      2259       726  TIP3      H2             -9.6275803985        3.4669042534      -30.4631046635  SOLV      715             0.0000000000
      2260       727  TIP3      OH2           -16.3666503985        1.3615642534      -32.2621146635  SOLV      716             0.0000000000
      2261       727  TIP3      H1            -16.3235403985        2.2214142534      -32.6804846635  SOLV      716             0.0000000000
      2262       727  TIP3      H2            -16.8242403985        0.8090342534      -32.8957946635  SOLV      716             0.0000000000
      2263       728  TIP3      OH2            -8.6443803985        1.4921242534      -33.8612846635  SOLV      717             0.0000000000
      2264       728  TIP3      H1             -7.9979503985        1.1634442534      -33.2365246635  SOLV      717             0.0000000000
      2265       728  TIP3      H2             -8.1344403985        2.0100242534      -34.4841446635  SOLV      717             0.0000000000
      2266       729  TIP3      OH2           -19.7465003985        3.7581442534      -31.4999746635  SOLV      718             0.0000000000
      2267       729  TIP3      H1            -19.0928403985        3.2083142534      -31.0679646635  SOLV      718             0.0000000000
      2268       729  TIP3      H2            -19.7225703985        3.4840442534      -32.4167746635  SOLV      718             0.0000000000
      2269       730  TIP3      OH2           -14.5900503985        5.3082742534      -32.2848246635  SOLV      719             0.0000000000
      2270       730  TIP3      H1            -13.9739503985        4.7818142534      -31.7754246635  SOLV      719             0.0000000000
      2271       730  TIP3      H2            -15.1761703985        4.6681442534      -32.6884646635  SOLV      719             0.0000000000
      2272       731  TIP3      OH2            -3.6077403985        1.9451342534      -26.7654746635  SOLV      720             0.0000000000
      2273       731  TIP3      H1             -4.2962803985        2.6032042534      -26.8608146635  SOLV      720             0.0000000000
      2274       731  TIP3      H2             -3.5922803985        1.7479242534      -25.8289346635  SOLV      720             0.0000000000
      2275       732  TIP3      OH2           -17.5564603985        0.2794042534      -28.1880346635  SOLV      721             0.0000000000
      2276       732  TIP3      H1            -17.7752903985        0.8094642534      -28.9544346635  SOLV      721             0.0000000000
      2277       732  TIP3      H2            -18.2243703985        0.5059542534      -27.5408946635  SOLV      721             0.0000000000
      2278       733  TIP3      OH2           -10.1874803985        9.7795142534      -34.6441246635  SOLV      722             0.0000000000
      2279       733  TIP3      H1            -10.4829703985        9.4567442534      -35.4954346635  SOLV      722             0.0000000000
      2280       733  TIP3      H2            -10.5117003985       10.6791842534      -34.6028646635  SOLV      722             0.0000000000
      2281       734  TIP3      OH2           -14.9873203985        7.9549742534      -27.9006646635  SOLV      723             0.0000000000
      2282       734  TIP3      H1            -15.7274103985        8.5531242534      -27.7971446635  SOLV      723             0.0000000000
      2283       734  TIP3      H2            -14.2733703985        8.5089342534      -28.2163046635  SOLV      723             0.0000000000
      2284       735  TIP3      OH2            -6.8805403985        0.7830542534      -31.8806946635  SOLV      724             0.0000000000
      2285       735  TIP3      H1             -7.0957403985        0.0173942534      -31.3480946635  SOLV      724             0.0000000000
      2286       735  TIP3      H2             -6.2248003985        1.2555142534      -31.3678446635  SOLV      724             0.0000000000
      2287       736  TIP3      OH2           -17.9627303985        2.1715842534      -30.2358146635  SOLV      725             0.0000000000
      2288       736  TIP3      H1            -17.3491003985        2.8043442534      -29.8625746635  SOLV      725             0.0000000000
      2289       736  TIP3      H2            -17.4506603985        1.6990842534      -30.8921246635  SOLV      725             0.0000000000
      2290       737  TIP3      OH2           -16.5798903985        9.9192742534      -27.1135146635  SOLV      726             0.0000000000
      2291       737  TIP3      H1            -16.5851303985       10.7986242534      -27.4915846635  SOLV      726             0.0000000000
      2292       737  TIP3      H2            -17.4334803985        9.8356842534      -26.6885246635  SOLV      726             0.0000000000
      2293       738  TIP3      OH2           -20.4588003985        9.5900642534      -36.3315846635  SOLV      727             0.0000000000
      2294       738  TIP3      H1            -20.7307103985        9.8191642534      -37.2202946635  SOLV      727             0.0000000000
      2295       738  TIP3      H2            -20.4132303985       10.4279442534      -35.8710546635  SOLV      727             0.0000000000
      2296       739  TIP3      OH2            -6.8338303985       11.2116542534      -29.6187346635  SOLV      728             0.0000000000
      2297       739  TIP3      H1             -7.7754603985       11.2700442534      -29.4570446635  SOLV      728             0.0000000000
      2298       739  TIP3      H2             -6.5572203985       12.1177042534      -29.7557646635  SOLV      728             0.0000000000
      2299       740  TIP3      OH2            -6.5331303985       -0.5018157466      -28.2013446635  SOLV      729             0.0000000000
      2300       740  TIP3      H1             -7.2692103985        0.1088942534      -28.2392146635  SOLV      729             0.0000000000
      2301       740  TIP3      H2             -5.8497303985       -0.0869157466      -28.7277046635  SOLV      729             0.0000000000
      2302       741  TIP3      OH2           -13.5299903985       -2.4150857466      -30.7355446635  SOLV      730             0.0000000000
      2303       741  TIP3      H1            -13.6475703985       -3.3634857466      -30.7897146635  SOLV      730             0.0000000000
      2304       741  TIP3      H2            -14.3849803985       -2.0824757466      -30.4624346635  SOLV      730             0.0000000000
      2305       742  TIP3      OH2            -8.5817103985       12.9930042534      -32.9935746635  SOLV      731             0.0000000000
      2306       742  TIP3      H1             -8.1564803985       12.2857942534      -33.4786146635  SOLV      731             0.0000000000
      2307       742  TIP3      H2             -8.2647103985       13.7942742534      -33.4103546635  SOLV      731             0.0000000000
      2308       743  TIP3      OH2            -7.4220603985       10.8938542534      -34.4849146635  SOLV      732             0.0000000000
      2309       743  TIP3      H1             -7.6795803985       10.2038642534      -35.0963246635  SOLV      732             0.0000000000
      2310       743  TIP3      H2             -7.3509803985       10.4509742534      -33.6393246635  SOLV      732             0.0000000000
      2311       744  TIP3      OH2            -5.7360403985        9.4605242534      -26.0075646635  SOLV      733             0.0000000000
      2312       744  TIP3      H1             -5.5964103985        8.8687742534      -26.7468646635  SOLV      733             0.0000000000
      2313       744  TIP3      H2             -5.5687603985       10.3331142534      -26.3636846635  SOLV      733             0.0000000000
      2314       745  TIP3      OH2           -11.2635003985        6.4224742534      -36.2349646635  SOLV      734             0.0000000000
      2315       745  TIP3      H1            -11.9749503985        6.9574442534      -36.5869146635  SOLV      734             0.0000000000
      2316       745  TIP3      H2            -10.5725403985        6.4776842534      -36.8950746635  SOLV      734             0.0000000000
      2317       746  TIP3      OH2           -11.2095803985        4.8799042534      -39.1964646635  SOLV      735             0.0000000000
      2318       746  TIP3      H1            -10.5085903985        4.9025942534      -38.5450646635  SOLV      735             0.0000000000
      2319       746  TIP3      H2            -10.9072903985        4.2518742534      -39.8525346635  SOLV      735             0.0000000000
      2320       747  TIP3      OH2            -3.8941103985        5.8003242534      -27.9415246635  SOLV      736             0.0000000000
      2321       747  TIP3      H1             -4.5467003985        6.4948842534      -27.8524346635  SOLV      736             0.0000000000
      2322       747  TIP3      H2             -3.4290803985        6.0104142534      -28.7513646635  SOLV      736             0.0000000000
      2323       748  TIP3      OH2            -7.8577303985        6.6318042534      -35.2833746635  SOLV      737             0.0000000000
      2324       748  TIP3      H1             -8.5896303985        6.8601742534      -34.7103146635  SOLV      737             0.0000000000
      2325       748  TIP3      H2             -7.4105103985        5.9180742534      -34.8286246635  SOLV      737             0.0000000000
      2326       749  TIP3      OH2            -7.9603803985        4.8060642534      -26.2156746635  SOLV      738             0.0000000000
      2327       749  TIP3      H1             -7.8804703985        5.5695042534      -25.6438246635  SOLV      738             0.0000000000
      2328       749  TIP3      H2             -8.5616103985        5.0853042534      -26.9061646635  SOLV      738             0.0000000000
      2329       750  TIP3      OH2           -16.2123603985        7.2624242534      -33.4008746635  SOLV      739             0.0000000000
      2330       750  TIP3      H1            -16.5428403985        6.8917642534      -34.2191746635  SOLV      739             0.0000000000
      2331       750  TIP3      H2            -15.6239503985        6.5918242534      -33.0540446635  SOLV      739             0.0000000000
      2332       751  TIP3      OH2           -14.8456103985       10.6904842534      -30.7196546635  SOLV      740             0.0000000000
      2333       751  TIP3      H1            -14.9404803985       10.1117942534      -31.4761946635  SOLV      740             0.0000000000
      2334       751  TIP3      H2            -14.1162503985       10.3190542534      -30.2233746635  SOLV      740             0.0000000000
      2335       752  TIP3      OH2           -15.8458103985        6.0309842534      -29.7673746635  SOLV      741             0.0000000000
      2336       752  TIP3      H1            -15.2805603985        6.1524042534      -30.5302546635  SOLV      741             0.0000000000
      2337       752  TIP3      H2            -15.5269203985        6.6684842534      -29.1285246635  SOLV      741             0.0000000000
      2338       753  TIP3      OH2            -9.5365903985       11.5341742534      -29.0333246635  SOLV      742             0.0000000000
      2339       753  TIP3      H1             -9.7769303985       12.1964842534      -28.3854046635  SOLV      742             0.0000000000
      2340       753  TIP3      H2             -9.7347703985       10.6996942534      -28.6083646635  SOLV      742             0.0000000000
      2341       754  TIP3      OH2           -14.9657403985       10.4302542534      -25.0501846635  SOLV      743             0.0000000000
      2342       754  TIP3      H1            -15.2769903985       11.2125742534      -24.5948646635  SOLV      743             0.0000000000
      2343       754  TIP3      H2            -15.6157203985       10.2771642534      -25.7359846635  SOLV      743             0.0000000000
      2344       755  TIP3      OH2            -8.9867803985        5.7940942534      -37.5982546635  SOLV      744             0.0000000000
      2345       755  TIP3      H1             -8.4072303985        5.9441242534      -36.8513646635  SOLV      744             0.0000000000
      2346       755  TIP3      H2             -8.5727803985        6.2648342534      -38.3216146635  SOLV      744             0.0000000000
      2347       756  TIP3      OH2           -18.0457503985        6.6283642534      -25.8216146635  SOLV      745             0.0000000000
      2348       756  TIP3      H1            -17.9754303985        7.2790442534      -25.1231146635  SOLV      745             0.0000000000
      2349       756  TIP3      H2            -18.9365303985        6.7311142534      -26.1565246635  SOLV      745             0.0000000000
      2350       757  TIP3      OH2           -11.2602903985       12.5309442534      -34.1629446635  SOLV      746             0.0000000000
      2351       757  TIP3      H1            -10.7865303985       12.8265742534      -33.3855246635  SOLV      746             0.0000000000
      2352       757  TIP3      H2            -11.8233603985       13.2691042534      -34.3959846635  SOLV      746             0.0000000000
      2353       758  TIP3      OH2           -16.7261503985       12.5017542534      -24.2868046635  SOLV      747             0.0000000000
      2354       758  TIP3      H1            -16.7186203985       12.3657242534      -25.2342546635  SOLV      747             0.0000000000
      2355       758  TIP3      H2            -17.6421103985       12.3845642534      -24.0348046635  SOLV      747             0.0000000000
      2356       759  TIP3      OH2            -5.2879403985       -2.4558657466      -37.7852846635  SOLV      748             0.0000000000
      2357       759  TIP3      H1             -6.1878703985       -2.3169657466      -37.4902246635  SOLV      748             0.0000000000
      2358       759  TIP3      H2             -5.0361003985       -1.6244057466      -38.1871146635  SOLV      748             0.0000000000
      2359       760  TIP3      OH2           -17.2220903985        6.3318542534      -35.8115946635  SOLV      749             0.0000000000
      2360       760  TIP3      H1            -17.5139603985        7.1000242534      -36.3024646635  SOLV      749             0.0000000000
      2361       760  TIP3      H2            -17.8965703985        5.6724742534      -35.9744546635  SOLV      749             0.0000000000
      2362       761  TIP3      OH2            -4.0988003985       11.9103742534      -39.4088946635  SOLV      750             0.0000000000
      2363       761  TIP3      H1             -4.0254503985       12.8493942534      -39.2383646635  SOLV      750             0.0000000000
      2364       761  TIP3      H2             -3.1932903985       11.6052342534      -39.4651646635  SOLV      750             0.0000000000
      2365       762  TIP3      OH2           -21.1290803985        8.6947742534      -26.9966146635  SOLV      751             0.0000000000
      2366       762  TIP3      H1            -21.6302403985        8.6667142534      -27.8116446635  SOLV      751             0.0000000000
      2367       762  TIP3      H2            -21.1237103985        7.7890942534      -26.6868846635  SOLV      751             0.0000000000
      2368       763  TIP3      OH2           -21.3788103985       11.4751542534      -30.1125946635  SOLV      752             0.0000000000
      2369       763  TIP3      H1            -20.4327503985       11.3308542534      -30.1316446635  SOLV      752             0.0000000000
      2370       763  TIP3      H2            -21.4911803985       12.2594342534      -29.5754746635  SOLV      752             0.0000000000
      2371       764  TIP3      OH2            -3.1809603985       12.1411242534      -24.4302246635  SOLV      753             0.0000000000
      2372       764  TIP3      H1             -3.2302803985       11.1859342534      -24.4674646635  SOLV      753             0.0000000000
      2373       764  TIP3      H2             -4.0077303985       12.4086542534      -24.0288446635  SOLV      753             0.0000000000
      2374       765  TIP3      OH2           -12.2025603985       11.7150442534      -25.5540846635  SOLV      754             0.0000000000
      2375       765  TIP3      H1            -12.1151003985       12.5415042534      -25.0791746635  SOLV      754             0.0000000000
      2376       765  TIP3      H2            -13.0660503985       11.3854242534      -25.3051546635  SOLV      754             0.0000000000
      2377       766  TIP3      OH2           -11.7879803985       15.4874142534      -35.7480246635  SOLV      755             0.0000000000
      2378       766  TIP3      H1            -11.8633803985       15.3661342534      -36.6945046635  SOLV      755             0.0000000000
      2379       766  TIP3      H2            -11.7551103985       16.4366842534      -35.6295646635  SOLV      755             0.0000000000
      2380       767  TIP3      OH2           -18.1346003985       14.2761142534      -33.9671246635  SOLV      756             0.0000000000
      2381       767  TIP3      H1            -17.9825603985       13.9281542534      -33.0884746635  SOLV      756             0.0000000000
      2382       767  TIP3      H2            -18.9855603985       13.9198442534      -34.2224046635  SOLV      756             0.0000000000
      2383       768  TIP3      OH2            -8.6863803985       14.6414342534      -38.7457846635  SOLV      757             0.0000000000
      2384       768  TIP3      H1             -8.3115403985       13.8970442534      -39.2165246635  SOLV      757             0.0000000000
      2385       768  TIP3      H2             -8.6820103985       14.3714942534      -37.8274546635  SOLV      757             0.0000000000
      2386       769  TIP3      OH2            -9.0175703985       14.5671442534      -35.9965646635  SOLV      758             0.0000000000
      2387       769  TIP3      H1             -9.9525903985       14.6673342534      -35.8178646635  SOLV      758             0.0000000000
      2388       769  TIP3      H2             -8.7373803985       13.8577442534      -35.4182446635  SOLV      758             0.0000000000
      2389       770  TIP3      OH2            -6.0289803985        3.6343742534      -23.9500046635  SOLV      759             0.0000000000
      2390       770  TIP3      H1             -6.4363003985        4.1149342534      -24.6706746635  SOLV      759             0.0000000000
      2391       770  TIP3      H2             -5.9884103985        2.7289742534      -24.2579246635  SOLV      759             0.0000000000
      2392       771  TIP3      OH2           -18.8800303985       10.0183142534      -25.9533346635  SOLV      760             0.0000000000
      2393       771  TIP3      H1            -18.6639003985        9.6568742534      -25.0937546635  SOLV      760             0.0000000000
      2394       771  TIP3      H2            -19.7355603985        9.6436942534      -26.1629846635  SOLV      760             0.0000000000
      2395       772  TIP3      OH2           -16.2612303985       -1.5116357466      -29.9579146635  SOLV      761             0.0000000000
      2396       772  TIP3      H1            -17.1228603985       -1.5988157466      -30.3656246635  SOLV      761             0.0000000000
      2397       772  TIP3      H2            -16.2836603985       -0.6556257466      -29.5301546635  SOLV      761             0.0000000000
      2398       773  TIP3      OH2           -11.5984503985       -1.7895957466      -26.5832146635  SOLV      762             0.0000000000
      2399       773  TIP3      H1            -11.1781403985       -2.2048857466      -25.8301546635  SOLV      762             0.0000000000
      2400       773  TIP3      H2            -12.5314903985       -1.9682657466      -26.4660146635  SOLV      762             0.0000000000
      2401       774  TIP3      OH2            -8.2719603985        1.9659242534      -25.7297646635  SOLV      763             0.0000000000
      2402       774  TIP3      H1             -8.7860103985        1.8401442534      -24.9321646635  SOLV      763             0.0000000000
      2403       774  TIP3      H2             -8.4274903985        2.8782342534      -25.9741446635  SOLV      763             0.0000000000
      2404       775  TIP3      OH2            -7.5094703985        6.8269242534      -39.9684646635  SOLV      764             0.0000000000
      2405       775  TIP3      H1             -7.4673903985        6.6043142534      -40.8984646635  SOLV      764             0.0000000000
      2406       775  TIP3      H2             -6.6602603985        7.2256342534      -39.7784746635  SOLV      764             0.0000000000
      2407       776  TIP3      OH2           -16.1702203985        3.4538142534      -28.8628946635  SOLV      765             0.0000000000
      2408       776  TIP3      H1            -16.8120103985        3.4135442534      -28.1538846635  SOLV      765             0.0000000000
      2409       776  TIP3      H2            -16.1330203985        4.3802842534      -29.1005946635  SOLV      765             0.0000000000
      2410       777  TIP3      OH2           -16.1733103985        3.6748242534      -33.9508946635  SOLV      766             0.0000000000
      2411       777  TIP3      H1            -17.0660203985        3.3344342534      -34.0095146635  SOLV      766             0.0000000000
      2412       777  TIP3      H2            -15.7226503985        3.2979142534      -34.7065746635  SOLV      766             0.0000000000
      2413       778  TIP3      OH2           -10.6377603985        4.0908542534      -35.1338146635  SOLV      767             0.0000000000
      2414       778  TIP3      H1            -11.0467303985        4.9057142534      -35.4253346635  SOLV      767             0.0000000000
      2415       778  TIP3      H2             -9.9171403985        3.9508642534      -35.7481046635  SOLV      767             0.0000000000
      2416       779  TIP3      OH2           -11.5356003985        4.2664942534      -23.6457446635  SOLV      768             0.0000000000
      2417       779  TIP3      H1            -12.0982203985        3.5616542534      -23.3249646635  SOLV      768             0.0000000000
      2418       779  TIP3      H2            -10.7092603985        4.1456842534      -23.1779846635  SOLV      768             0.0000000000
      2419       780  TIP3      OH2            -9.6329903985        3.5368942534      -32.3198446635  SOLV      769             0.0000000000
      2420       780  TIP3      H1             -9.8285403985        4.1425742534      -33.0347846635  SOLV      769             0.0000000000
      2421       780  TIP3      H2             -9.4517303985        2.7034142534      -32.7542146635  SOLV      769             0.0000000000
      2422       781  TIP3      OH2           -18.4201703985        3.7741642534      -26.9956946635  SOLV      770             0.0000000000
      2423       781  TIP3      H1            -18.4582303985        4.1743242534      -26.1269846635  SOLV      770             0.0000000000
      2424       781  TIP3      H2            -18.9110603985        2.9574042534      -26.9054046635  SOLV      770             0.0000000000
      2425       782  TIP3      OH2           -21.8120903985        0.8903442534      -33.1452246635  SOLV      771             0.0000000000
      2426       782  TIP3      H1            -21.1813203985        0.8615542534      -32.4258346635  SOLV      771             0.0000000000
      2427       782  TIP3      H2            -21.3626603985        0.4652142534      -33.8756346635  SOLV      771             0.0000000000
      2428       783  TIP3      OH2           -10.3690703985        5.1750242534      -27.6486046635  SOLV      772             0.0000000000
      2429       783  TIP3      H1            -10.0455903985        4.5439942534      -28.2915546635  SOLV      772             0.0000000000
      2430       783  TIP3      H2            -10.8091403985        4.6402442534      -26.9878646635  SOLV      772             0.0000000000
      2431       784  TIP3      OH2           -13.5917803985        1.1025742534      -32.8644846635  SOLV      773             0.0000000000
      2432       784  TIP3      H1            -14.5026703985        1.1592542534      -32.5758846635  SOLV      773             0.0000000000
      2433       784  TIP3      H2            -13.0864903985        1.0421242534      -32.0537646635  SOLV      773             0.0000000000
      2434       785  TIP3      OH2           -18.7634403985        2.7312042534      -34.0377246635  SOLV      774             0.0000000000
      2435       785  TIP3      H1            -19.6526403985        2.8307542534      -34.3777646635  SOLV      774             0.0000000000
      2436       785  TIP3      H2            -18.4669503985        1.8895042534      -34.3839346635  SOLV      774             0.0000000000
      2437       786  TIP3      OH2           -15.1102603985        2.7314642534      -36.3812646635  SOLV      775             0.0000000000
      2438       786  TIP3      H1            -14.1787103985        2.8604642534      -36.2029546635  SOLV      775             0.0000000000
      2439       786  TIP3      H2            -15.3252303985        3.4008942534      -37.0307946635  SOLV      775             0.0000000000
      2440       787  TIP3      OH2            -5.8990803985       16.0087442534      -23.3235446635  SOLV      776             0.0000000000
      2441       787  TIP3      H1             -5.6992103985       16.4329342534      -24.1580146635  SOLV      776             0.0000000000
      2442       787  TIP3      H2             -5.2437103985       16.3525642534      -22.7165046635  SOLV      776             0.0000000000
      2443       788  TIP3      OH2           -18.3011003985        8.4828742534      -23.7154946635  SOLV      777             0.0000000000
      2444       788  TIP3      H1            -17.5688603985        8.7374642534      -23.1540446635  SOLV      777             0.0000000000
      2445       788  TIP3      H2            -19.0812303985        8.6874142534      -23.1999546635  SOLV      777             0.0000000000
      2446       789  TIP3      OH2           -12.2718103985        3.8898742534      -30.9775246635  SOLV      778             0.0000000000
      2447       789  TIP3      H1            -11.7074703985        3.3435342534      -31.5245646635  SOLV      778             0.0000000000
      2448       789  TIP3      H2            -12.4194703985        3.3680642534      -30.1887646635  SOLV      778             0.0000000000
      2449       790  TIP3      OH2           -17.2698403985        0.0264842534      -34.5590446635  SOLV      779             0.0000000000
      2450       790  TIP3      H1            -17.5868903985       -0.8759857466      -34.5945046635  SOLV      779             0.0000000000
      2451       790  TIP3      H2            -16.4884303985        0.0282242534      -35.1118846635  SOLV      779             0.0000000000
      2452       791  TIP3      OH2           -13.6452203985        2.2784842534      -28.5634846635  SOLV      780             0.0000000000
      2453       791  TIP3      H1            -14.4806903985        2.7324342534      -28.4532446635  SOLV      780             0.0000000000
      2454       791  TIP3      H2            -13.1211603985        2.5543342534      -27.8114946635  SOLV      780             0.0000000000
      2455       792  TIP3      OH2           -13.1009603985        8.4912542534      -36.8788446635  SOLV      781             0.0000000000
      2456       792  TIP3      H1            -13.8458603985        7.9837842534      -37.2010546635  SOLV      781             0.0000000000
      2457       792  TIP3      H2            -13.2352403985        8.5400542534      -35.9323646635  SOLV      781             0.0000000000
      2458       793  TIP3      OH2            -5.9510703985        7.6240742534      -28.0920846635  SOLV      782             0.0000000000
      2459       793  TIP3      H1             -5.3091903985        8.0807042534      -28.6358646635  SOLV      782             0.0000000000
      2460       793  TIP3      H2             -6.7813803985        7.7373142534      -28.5546746635  SOLV      782             0.0000000000
      2461       794  TIP3      OH2            -9.2032803985        1.3052442534      -38.6795846635  SOLV      783             0.0000000000
      2462       794  TIP3      H1            -10.1418603985        1.4168042534      -38.8307046635  SOLV      783             0.0000000000
      2463       794  TIP3      H2             -8.9060703985        2.1619342534      -38.3730146635  SOLV      783             0.0000000000
      2464       795  TIP3      OH2           -11.5817503985        8.6755842534      -25.6419346635  SOLV      784             0.0000000000
      2465       795  TIP3      H1            -11.9271403985        8.2938242534      -24.8349746635  SOLV      784             0.0000000000
      2466       795  TIP3      H2            -11.7817403985        9.6089442534      -25.5706446635  SOLV      784             0.0000000000
      2467       796  TIP3      OH2            -8.4849303985        3.1725142534      -37.0188446635  SOLV      785             0.0000000000
      2468       796  TIP3      H1             -7.5930303985        3.0350142534      -36.6997246635  SOLV      785             0.0000000000
      2469       796  TIP3      H2             -8.4285703985        3.9631242534      -37.5554946635  SOLV      785             0.0000000000
      2470       797  TIP3      OH2           -17.9761303985        7.7862542534      -31.1090546635  SOLV      786             0.0000000000
      2471       797  TIP3      H1            -17.2314103985        7.7838242534      -31.7104046635  SOLV      786             0.0000000000
      2472       797  TIP3      H2            -17.8984703985        6.9626342534      -30.6275446635  SOLV      786             0.0000000000
      2473       798  TIP3      OH2           -10.9755503985        9.9496842534      -37.8533846635  SOLV      787             0.0000000000
      2474       798  TIP3      H1            -11.2707103985       10.7764742534      -37.4719046635  SOLV      787             0.0000000000
      2475       798  TIP3      H2            -11.6785503985        9.3303742534      -37.6572446635  SOLV      787             0.0000000000
      2476       799  TIP3      OH2           -20.9681603985        6.2469442534      -25.7942046635  SOLV      788             0.0000000000
      2477       799  TIP3      H1            -20.7453003985        5.8289042534      -24.9624546635  SOLV      788             0.0000000000
      2478       799  TIP3      H2            -21.5701503985        5.6344442534      -26.2169246635  SOLV      788             0.0000000000
      2479       800  TIP3      OH2           -13.9516703985        5.7639342534      -23.5812346635  SOLV      789             0.0000000000
      2480       800  TIP3      H1            -14.2475903985        5.5982342534      -24.4763246635  SOLV      789             0.0000000000
      2481       800  TIP3      H2            -13.0201503985        5.5439642534      -23.5918446635  SOLV      789             0.0000000000
      2482       801  TIP3      OH2            -9.3313903985       11.1371342534      -25.6914346635  SOLV      790             0.0000000000
      2483       801  TIP3      H1            -10.2319603985       11.3203942534      -25.9590446635  SOLV      790             0.0000000000
      2484       801  TIP3      H2             -9.2972803985       11.3960642534      -24.7705546635  SOLV      790             0.0000000000
      2485       802  TIP3      OH2            -3.6000603985        3.3819242534      -37.3241746635  SOLV      791             0.0000000000
      2486       802  TIP3      H1             -4.1544303985        2.9857242534      -37.9964246635  SOLV      791             0.0000000000
      2487       802  TIP3      H2             -3.4997003985        4.2924442534      -37.6018446635  SOLV      791             0.0000000000
      2488       803  TIP3      OH2            -3.6368603985        9.1820942534      -24.4870246635  SOLV      792             0.0000000000
      2489       803  TIP3      H1             -4.4880103985        9.4204742534      -24.8543846635  SOLV      792             0.0000000000
      2490       803  TIP3      H2             -3.0465203985        9.1654142534      -25.2403146635  SOLV      792             0.0000000000
      2491       804  TIP3      OH2            -5.3048903985       12.1679642534      -36.8589646635  SOLV      793             0.0000000000
      2492       804  TIP3      H1             -5.6777803985       11.3423442534      -36.5499046635  SOLV      793             0.0000000000
      2493       804  TIP3      H2             -5.0275403985       11.9849042534      -37.7566246635  SOLV      793             0.0000000000
      2494       805  TIP3      OH2            -8.1445003985        6.9759142534      -29.8377746635  SOLV      794             0.0000000000
      2495       805  TIP3      H1             -9.0728103985        6.7441042534      -29.8648446635  SOLV      794             0.0000000000
      2496       805  TIP3      H2             -7.6933903985        6.1988942534      -30.1678946635  SOLV      794             0.0000000000
      2497       806  TIP3      OH2           -15.6011903985       11.3040742534      -33.7049046635  SOLV      795             0.0000000000
      2498       806  TIP3      H1            -15.0739703985       12.0775142534      -33.9050246635  SOLV      795             0.0000000000
      2499       806  TIP3      H2            -16.4813403985       11.5289942534      -34.0065046635  SOLV      795             0.0000000000
      2500       807  TIP3      OH2           -14.1739603985        8.9670642534      -34.1284746635  SOLV      796             0.0000000000
      2501       807  TIP3      H1            -14.4149603985        9.8925042534      -34.0869446635  SOLV      796             0.0000000000
      2502       807  TIP3      H2            -14.9146003985        8.5081942534      -33.7320846635  SOLV      796             0.0000000000
      2503       808  TIP3      OH2           -13.6593003985       13.1164242534      -27.8133646635  SOLV      797             0.0000000000
      2504       808  TIP3      H1            -13.2968303985       13.9709842534      -28.0469246635  SOLV      797             0.0000000000
      2505       808  TIP3      H2            -13.1277803985       12.8245842534      -27.0727346635  SOLV      797             0.0000000000
      2506       809  TIP3      OH2           -15.4908803985       13.9888242534      -34.5832546635  SOLV      798             0.0000000000
      2507       809  TIP3      H1            -16.4408303985       14.0945642534      -34.5319246635  SOLV      798             0.0000000000
      2508       809  TIP3      H2            -15.1390703985       14.8095642534      -34.2385046635  SOLV      798             0.0000000000
      2509       810  TIP3      OH2           -10.1152203985        9.2154942534      -28.1128046635  SOLV      799             0.0000000000
      2510       810  TIP3      H1            -10.5410903985        8.9876642534      -27.2864046635  SOLV      799             0.0000000000
      2511       810  TIP3      H2             -9.5346403985        8.4766742534      -28.2952746635  SOLV      799             0.0000000000
      2512       811  TIP3      OH2            -7.9123303985       10.1445442534      -39.0389046635  SOLV      800             0.0000000000
      2513       811  TIP3      H1             -7.5590203985        9.7645242534      -38.2345546635  SOLV      800             0.0000000000
      2514       811  TIP3      H2             -8.8609803985       10.0510242534      -38.9519746635  SOLV      800             0.0000000000
      2515       812  TIP3      OH2            -7.4568003985       13.7674442534      -25.6433246635  SOLV      801             0.0000000000
      2516       812  TIP3      H1             -8.0584803985       13.2117342534      -26.1386946635  SOLV      801             0.0000000000
      2517       812  TIP3      H2             -7.1754303985       14.4344242534      -26.2695846635  SOLV      801             0.0000000000
      2518       813  TIP3      OH2            -3.4088903985       14.6237942534      -38.8378846635  SOLV      802             0.0000000000
      2519       813  TIP3      H1             -2.6651003985       15.2098442534      -38.9777246635  SOLV      802             0.0000000000
      2520       813  TIP3      H2             -4.1030803985       15.1923742534      -38.5046446635  SOLV      802             0.0000000000
      2521       814  TIP3      OH2           -19.3342103985        1.0002142534      -26.2360646635  SOLV      803             0.0000000000
      2522       814  TIP3      H1            -20.2269803985        1.3387542534      -26.3036646635  SOLV      803             0.0000000000
      2523       814  TIP3      H2            -19.4329303985        0.1448242534      -25.8179846635  SOLV      803             0.0000000000
      2524       815  TIP3      OH2            -7.0464003985        8.8167442534      -36.8121146635  SOLV      804             0.0000000000
      2525       815  TIP3      H1             -7.3236403985        8.0886742534      -36.2560046635  SOLV      804             0.0000000000
      2526       815  TIP3      H2             -6.1191003985        8.9359442534      -36.6068546635  SOLV      804             0.0000000000
      2527       816  TIP3      OH2           -19.6830103985       12.8046542534      -27.8011246635  SOLV      805             0.0000000000
      2528       816  TIP3      H1            -19.4659803985       11.8728942534      -27.8321546635  SOLV      805             0.0000000000
      2529       816  TIP3      H2            -19.4366603985       13.0791542534      -26.9178446635  SOLV      805             0.0000000000
      2530       817  TIP3      OH2           -13.8215503985       11.2561542534      -40.5919046635  SOLV      806             0.0000000000
      2531       817  TIP3      H1            -13.5825703985       10.5079642534      -41.1390146635  SOLV      806             0.0000000000
      2532       817  TIP3      H2            -14.0904203985       10.8683242534      -39.7591246635  SOLV      806             0.0000000000
      2533       818  TIP3      OH2           -14.8844903985       10.8265342534      -38.1356446635  SOLV      807             0.0000000000
      2534       818  TIP3      H1            -14.7376903985       10.3065142534      -37.3455546635  SOLV      807             0.0000000000
      2535       818  TIP3      H2            -14.8873203985       11.7332942534      -37.8290546635  SOLV      807             0.0000000000
      2536       819  TIP3      OH2           -18.4313803985        8.0788642534      -37.6251046635  SOLV      808             0.0000000000
      2537       819  TIP3      H1            -19.1174503985        8.4311142534      -37.0581346635  SOLV      808             0.0000000000
      2538       819  TIP3      H2            -17.9085903985        8.8418242534      -37.8716746635  SOLV      808             0.0000000000
      2539       820  TIP3      OH2           -10.5998703985        0.7412442534      -27.3462046635  SOLV      809             0.0000000000
      2540       820  TIP3      H1             -9.9010803985        0.8151142534      -26.6962346635  SOLV      809             0.0000000000
      2541       820  TIP3      H2            -10.9807303985       -0.1232557466      -27.1919146635  SOLV      809             0.0000000000
      2542       821  TIP3      OH2            -9.8153803985        0.3934142534      -36.2489746635  SOLV      810             0.0000000000
      2543       821  TIP3      H1             -9.5955503985        0.8649542534      -37.0524346635  SOLV      810             0.0000000000
      2544       821  TIP3      H2             -9.2569803985        0.7876742534      -35.5789146635  SOLV      810             0.0000000000
      2545       822  TIP3      OH2           -12.1467703985       12.5238942534      -37.3862246635  SOLV      811             0.0000000000
      2546       822  TIP3      H1            -12.9631603985       13.0208642534      -37.3337946635  SOLV      811             0.0000000000
      2547       822  TIP3      H2            -11.6171403985       12.9992442534      -38.0263446635  SOLV      811             0.0000000000
      2548       823  TIP3      OH2           -12.6153903985        2.1212942534      -35.4141346635  SOLV      812             0.0000000000
      2549       823  TIP3      H1            -11.8031303985        2.6256142534      -35.3679646635  SOLV      812             0.0000000000
      2550       823  TIP3      H2            -12.8600903985        1.9762642534      -34.5001746635  SOLV      812             0.0000000000
      2551       824  TIP3      OH2           -12.0797503985        3.1075642534      -26.2294746635  SOLV      813             0.0000000000
      2552       824  TIP3      H1            -11.9607203985        3.6811042534      -25.4724346635  SOLV      813             0.0000000000
      2553       824  TIP3      H2            -11.4242903985        2.4195042534      -26.1146946635  SOLV      813             0.0000000000
      2554       825  TIP3      OH2           -11.7317203985       -0.7974057466      -34.4760246635  SOLV      814             0.0000000000
      2555       825  TIP3      H1            -12.0783703985       -0.1803457466      -33.8315946635  SOLV      814             0.0000000000
      2556       825  TIP3      H2            -11.0730303985       -0.2968357466      -34.9574746635  SOLV      814             0.0000000000
      2557       826  TIP3      OH2           -14.8084603985       13.5676142534      -37.4045346635  SOLV      815             0.0000000000
      2558       826  TIP3      H1            -14.6475903985       14.3673642534      -37.9052746635  SOLV      815             0.0000000000
      2559       826  TIP3      H2            -15.0056803985       13.8742142534      -36.5194746635  SOLV      815             0.0000000000
      2560       827  TIP3      OH2            -5.8751703985        1.0145942534      -25.3945046635  SOLV      816             0.0000000000
      2561       827  TIP3      H1             -6.7915903985        1.2767642534      -25.4821346635  SOLV      816             0.0000000000
      2562       827  TIP3      H2             -5.5396703985        1.0114942534      -26.2909746635  SOLV      816             0.0000000000
      2563       828  TIP3      OH2            -7.2730703985        4.7646942534      -31.2987746635  SOLV      817             0.0000000000
      2564       828  TIP3      H1             -8.0706303985        4.3497142534      -31.6272746635  SOLV      817             0.0000000000
      2565       828  TIP3      H2             -6.8279603985        4.0740642534      -30.8077246635  SOLV      817             0.0000000000
      2566       829  TIP3      OH2           -17.8154903985       10.6927542534      -38.7283246635  SOLV      818             0.0000000000
      2567       829  TIP3      H1            -17.2233403985       11.3922342534      -38.4520846635  SOLV      818             0.0000000000
      2568       829  TIP3      H2            -17.3561903985       10.2597042534      -39.4478646635  SOLV      818             0.0000000000
      2569       830  TIP3      OH2            -6.1866103985       14.0209442534      -29.6764246635  SOLV      819             0.0000000000
      2570       830  TIP3      H1             -6.3421803985       14.6993842534      -30.3334946635  SOLV      819             0.0000000000
      2571       830  TIP3      H2             -5.2539703985       14.0928742534      -29.4733646635  SOLV      819             0.0000000000
      2572       831  TIP3      OH2           -18.6913703985       -1.8612857466      -30.9392846635  SOLV      820             0.0000000000
      2573       831  TIP3      H1            -18.9203903985       -1.8020357466      -31.8667846635  SOLV      820             0.0000000000
      2574       831  TIP3      H2            -19.1340303985       -2.6527357466      -30.6328746635  SOLV      820             0.0000000000
      2575       832  TIP3      OH2           -19.7610403985       12.0794242534      -34.7787046635  SOLV      821             0.0000000000
      2576       832  TIP3      H1            -20.5931803985       12.5516942534      -34.7515646635  SOLV      821             0.0000000000
      2577       832  TIP3      H2            -19.2152103985       12.5891842534      -35.3773946635  SOLV      821             0.0000000000
      2578       833  TIP3      OH2           -15.8753303985       13.6112342534      -21.8284846635  SOLV      822             0.0000000000
      2579       833  TIP3      H1            -15.1076103985       13.1523142534      -21.4875646635  SOLV      822             0.0000000000
      2580       833  TIP3      H2            -15.8967103985       13.3852142534      -22.7583646635  SOLV      822             0.0000000000
      2581       834  TIP3      OH2           -11.7833703985       13.1192942534      -40.4533046635  SOLV      823             0.0000000000
      2582       834  TIP3      H1            -12.4272703985       12.4881542534      -40.1319346635  SOLV      823             0.0000000000
      2583       834  TIP3      H2            -11.0215403985       12.5880942534      -40.6849546635  SOLV      823             0.0000000000
      2584       835  TIP3      OH2            -9.2984603985       11.9913442534      -23.0993346635  SOLV      824             0.0000000000
      2585       835  TIP3      H1             -9.6495103985       11.1346442534      -22.8562946635  SOLV      824             0.0000000000
      2586       835  TIP3      H2             -8.5721403985       12.1340142534      -22.4924346635  SOLV      824             0.0000000000
      2587       836  TIP3      OH2            -7.1790803985       12.9362842534      -40.2195046635  SOLV      825             0.0000000000
      2588       836  TIP3      H1             -6.8960403985       12.1418042534      -39.7668146635  SOLV      825             0.0000000000
      2589       836  TIP3      H2             -6.4392903985       13.1693842534      -40.7803946635  SOLV      825             0.0000000000
      2590       837  TIP3      OH2           -20.5657203985        8.5022042534      -22.4944746635  SOLV      826             0.0000000000
      2591       837  TIP3      H1            -20.4216703985        7.6002742534      -22.7808046635  SOLV      826             0.0000000000
      2592       837  TIP3      H2            -21.3379803985        8.7884142534      -22.9822446635  SOLV      826             0.0000000000
      2593       838  TIP3      OH2           -13.9101103985        8.4720142534      -23.0618346635  SOLV      827             0.0000000000
      2594       838  TIP3      H1            -14.2387303985        8.7428242534      -23.9190946635  SOLV      827             0.0000000000
      2595       838  TIP3      H2            -13.7582903985        7.5309942534      -23.1493346635  SOLV      827             0.0000000000
      2596       839  TIP3      OH2           -10.8720103985        9.8929442534      -40.6262146635  SOLV      828             0.0000000000
      2597       839  TIP3      H1            -11.1406003985       10.0731542534      -39.7253246635  SOLV      828             0.0000000000
      2598       839  TIP3      H2            -11.0784503985        8.9675642534      -40.7576346635  SOLV      828             0.0000000000
      2599       840  TIP3      OH2            -8.1755903985        8.3877442534      -25.6786046635  SOLV      829             0.0000000000
      2600       840  TIP3      H1             -7.4301103985        8.9761142534      -25.7982046635  SOLV      829             0.0000000000
      2601       840  TIP3      H2             -8.9329103985        8.9697142534      -25.6152946635  SOLV      829             0.0000000000
      2602       841  TIP3      OH2           -19.7330703985        5.7025342534      -23.0745446635  SOLV      830             0.0000000000
      2603       841  TIP3      H1            -19.3249503985        4.8451942534      -23.1954846635  SOLV      830             0.0000000000
      2604       841  TIP3      H2            -19.9933103985        5.7166642534      -22.1535146635  SOLV      830             0.0000000000
      2605       842  TIP3      OH2           -15.0749703985        6.8183942534      -38.0562146635  SOLV      831             0.0000000000
      2606       842  TIP3      H1            -15.5347703985        6.3342242534      -37.3703646635  SOLV      831             0.0000000000
      2607       842  TIP3      H2            -14.8201003985        6.1499342534      -38.6921646635  SOLV      831             0.0000000000
      2608       843  TIP3      OH2           -15.7860403985        4.7111042534      -25.7002546635  SOLV      832             0.0000000000
      2609       843  TIP3      H1            -16.4044303985        5.3857642534      -25.4197846635  SOLV      832             0.0000000000
      2610       843  TIP3      H2            -15.4419203985        5.0324942534      -26.5336346635  SOLV      832             0.0000000000
      2611       844  TIP3      OH2           -10.7662203985        7.1826342534      -22.4227746635  SOLV      833             0.0000000000
      2612       844  TIP3      H1             -9.8131003985        7.2665442534      -22.4501746635  SOLV      833             0.0000000000
      2613       844  TIP3      H2            -10.9267603985        6.4708142534      -21.8032846635  SOLV      833             0.0000000000
      2614       845  TIP3      OH2            -4.6141003985        7.4159942534      -40.3480846635  SOLV      834             0.0000000000
      2615       845  TIP3      H1             -4.8876203985        6.9915442534      -41.1612546635  SOLV      834             0.0000000000
      2616       845  TIP3      H2             -4.5746903985        8.3474442534      -40.5650446635  SOLV      834             0.0000000000
      2617       846  TIP3      OH2           -15.4466703985        2.0661842534      -24.6179446635  SOLV      835             0.0000000000
      2618       846  TIP3      H1            -15.2965803985        1.3373142534      -25.2199746635  SOLV      835             0.0000000000
      2619       846  TIP3      H2            -15.4444303985        2.8433542534      -25.1767246635  SOLV      835             0.0000000000
      2620       847  TIP3      OH2           -15.0341003985        0.4357642534      -27.1252046635  SOLV      836             0.0000000000
      2621       847  TIP3      H1            -14.4983503985        0.8874342534      -27.7772746635  SOLV      836             0.0000000000
      2622       847  TIP3      H2            -15.8861403985        0.3277442534      -27.5477946635  SOLV      836             0.0000000000
      2623       848  TIP3      OH2           -13.4522603985        5.8753842534      -26.8856846635  SOLV      837             0.0000000000
      2624       848  TIP3      H1            -12.7017803985        5.7191342534      -27.4589046635  SOLV      837             0.0000000000
      2625       848  TIP3      H2            -13.7914303985        6.7270442534      -27.1611346635  SOLV      837             0.0000000000
      2626       849  TIP3      OH2            -9.0366403985        3.6905642534      -21.8571546635  SOLV      838             0.0000000000
      2627       849  TIP3      H1             -8.8445103985        2.7595042534      -21.9687046635  SOLV      838             0.0000000000
      2628       849  TIP3      H2             -8.1790103985        4.1155142534      -21.8676146635  SOLV      838             0.0000000000
      2629       850  TIP3      OH2            -7.7199203985        6.4790842534      -23.7798846635  SOLV      839             0.0000000000
      2630       850  TIP3      H1             -8.0014203985        7.1885442534      -24.3575046635  SOLV      839             0.0000000000
      2631       850  TIP3      H2             -6.7774903985        6.4063842534      -23.9307646635  SOLV      839             0.0000000000
      2632       851  TIP3      OH2           -16.9680403985        3.2645342534      -22.7063846635  SOLV      840             0.0000000000
      2633       851  TIP3      H1            -17.7351403985        2.7320142534      -22.9166246635  SOLV      840             0.0000000000
      2634       851  TIP3      H2            -16.2891403985        2.9545742534      -23.3057546635  SOLV      840             0.0000000000
      2635       852  TIP3      OH2           -14.2285503985       -2.1076657466      -26.6938446635  SOLV      841             0.0000000000
      2636       852  TIP3      H1            -14.3265903985       -1.1613457466      -26.7992246635  SOLV      841             0.0000000000
      2637       852  TIP3      H2            -14.9709303985       -2.4802857466      -27.1694946635  SOLV      841             0.0000000000
      2638       853  TIP3      OH2           -12.9645003985        2.2138742534      -23.1300046635  SOLV      842             0.0000000000
      2639       853  TIP3      H1            -13.1999603985        1.9945442534      -22.2285146635  SOLV      842             0.0000000000
      2640       853  TIP3      H2            -13.7478103985        2.0069942534      -23.6397546635  SOLV      842             0.0000000000
      2641       854  TIP3      OH2           -10.2488403985        1.3412242534      -24.0546546635  SOLV      843             0.0000000000
      2642       854  TIP3      H1            -11.1963003985        1.3731942534      -23.9223246635  SOLV      843             0.0000000000
      2643       854  TIP3      H2             -9.9361703985        0.7159342534      -23.4008346635  SOLV      843             0.0000000000
      2644       855  TIP3      OH2            -8.6146903985       -0.0246657466      -22.0494646635  SOLV      844             0.0000000000
      2645       855  TIP3      H1             -8.7115103985       -0.9769357466      -22.0552746635  SOLV      844             0.0000000000
      2646       855  TIP3      H2             -8.9363803985        0.2440142534      -21.1889146635  SOLV      844             0.0000000000
      2647       856  TIP3      OH2           -18.7877603985        1.1849142534      -23.0019146635  SOLV      845             0.0000000000
      2648       856  TIP3      H1            -18.5760203985        0.4785242534      -23.6121646635  SOLV      845             0.0000000000
      2649       856  TIP3      H2            -18.8990103985        0.7475142534      -22.1577946635  SOLV      845             0.0000000000
      2650       857  TIP3      OH2           -14.0067403985       -2.8139257466      -24.0225646635  SOLV      846             0.0000000000
      2651       857  TIP3      H1            -13.2949003985       -3.4537057466      -24.0366546635  SOLV      846             0.0000000000
      2652       857  TIP3      H2            -14.1077003985       -2.5470957466      -24.9362546635  SOLV      846             0.0000000000
      2653       858  TIP3      OH2           -13.6529903985       -1.1310857466      -21.9689346635  SOLV      847             0.0000000000
      2654       858  TIP3      H1            -13.7847703985       -1.6067057466      -22.7890846635  SOLV      847             0.0000000000
      2655       858  TIP3      H2            -14.2522503985       -0.3867257466      -22.0242246635  SOLV      847             0.0000000000
      2656       859  TIP3      OH2           -14.1067603985       15.7519442534      -38.7925346635  SOLV      848             0.0000000000
      2657       859  TIP3      H1            -13.1736903985       15.9098142534      -38.6486946635  SOLV      848             0.0000000000
      2658       859  TIP3      H2            -14.3708803985       16.4272442534      -39.4173846635  SOLV      848             0.0000000000
      2659       860  TIP3      OH2           -21.8892103985       15.7811742534      -34.2323346635  SOLV      849             0.0000000000
      2660       860  TIP3      H1            -22.5365003985       15.3193442534      -34.7652146635  SOLV      849             0.0000000000
      2661       860  TIP3      H2            -21.5347503985       15.1095042534      -33.6497146635  SOLV      849             0.0000000000
      2662       861  TIP3      OH2           -21.0192903985       13.8618742534      -32.4277146635  SOLV      850             0.0000000000
      2663       861  TIP3      H1            -21.3536103985       12.9816042534      -32.2556946635  SOLV      850             0.0000000000
      2664       861  TIP3      H2            -20.7970503985       14.2073742534      -31.5631546635  SOLV      850             0.0000000000
      2665       862  TIP3      OH2            -3.4708103985       14.6715142534      -29.4472346635  SOLV      851             0.0000000000
      2666       862  TIP3      H1             -3.4921403985       14.8563542534      -28.5082946635  SOLV      851             0.0000000000
      2667       862  TIP3      H2             -2.7801903985       15.2399142534      -29.7880946635  SOLV      851             0.0000000000
      2668       863  TIP3      OH2            -3.9075203985       14.2386242534      -26.5253246635  SOLV      852             0.0000000000
      2669       863  TIP3      H1             -4.3946503985       13.5030342534      -26.8965846635  SOLV      852             0.0000000000
      2670       863  TIP3      H2             -3.3582503985       13.8450142534      -25.8473846635  SOLV      852             0.0000000000
      2671       864  TIP3      OH2            -4.1558203985        8.2848042534      -36.3730446635  SOLV      853             0.0000000000
      2672       864  TIP3      H1             -3.3056803985        8.7058942534      -36.2458846635  SOLV      853             0.0000000000
      2673       864  TIP3      H2             -4.1503103985        7.5448142534      -35.7659046635  SOLV      853             0.0000000000
      2674       865  TIP3      OH2            -3.7612603985        6.3385442534      -34.5494746635  SOLV      854             0.0000000000
      2675       865  TIP3      H1             -4.4878003985        5.8588042534      -34.1517146635  SOLV      854             0.0000000000
      2676       865  TIP3      H2             -3.1799303985        6.5440142534      -33.8173146635  SOLV      854             0.0000000000
      2677       866  TIP3      OH2            -4.0021403985        9.1232942534      -29.6017146635  SOLV      855             0.0000000000
      2678       866  TIP3      H1             -3.1687203985        8.7452942534      -29.8823546635  SOLV      855             0.0000000000
      2679       866  TIP3      H2             -3.8901103985       10.0664142534      -29.7208046635  SOLV      855             0.0000000000
      2680       867  TIP3      OH2            -5.5159103985       12.0010442534      -27.2948746635  SOLV      856             0.0000000000
      2681       867  TIP3      H1             -6.1633803985       12.3261942534      -26.6693546635  SOLV      856             0.0000000000
      2682       867  TIP3      H2             -6.0335103985       11.5608142534      -27.9690446635  SOLV      856             0.0000000000
      2683       868  TIP3      OH2            -3.4929503985        6.2393942534      -38.1583446635  SOLV      857             0.0000000000
      2684       868  TIP3      H1             -4.0148403985        6.5958042534      -38.8772546635  SOLV      857             0.0000000000
      2685       868  TIP3      H2             -3.5260303985        6.9141742534      -37.4802546635  SOLV      857             0.0000000000
      2686       869  TIP3      OH2            -5.1440503985        3.4789542534      -39.6076346635  SOLV      858             0.0000000000
      2687       869  TIP3      H1             -5.0476103985        4.1456542534      -40.2876646635  SOLV      858             0.0000000000
      2688       869  TIP3      H2             -5.2840903985        2.6635842534      -40.0890846635  SOLV      858             0.0000000000
      2689       870  TIP3      OH2            -5.9745803985        4.8591942534      -33.9866046635  SOLV      859             0.0000000000
      2690       870  TIP3      H1             -6.1247003985        3.9140542534      -34.0068246635  SOLV      859             0.0000000000
      2691       870  TIP3      H2             -6.3281303985        5.1403342534      -33.1426946635  SOLV      859             0.0000000000
      2692       871  TIP3      OH2           -20.9393403985        6.9374142534      -29.9762246635  SOLV      860             0.0000000000
      2693       871  TIP3      H1            -20.7550503985        6.8555842534      -30.9119346635  SOLV      860             0.0000000000
      2694       871  TIP3      H2            -20.0900503985        6.8131142534      -29.5525846635  SOLV      860             0.0000000000
      2695       872  TIP3      OH2            -5.1182903985        6.8295242534      -24.3477746635  SOLV      861             0.0000000000
      2696       872  TIP3      H1             -4.5355603985        6.0947542534      -24.1560546635  SOLV      861             0.0000000000
      2697       872  TIP3      H2             -4.5543603985        7.6015542534      -24.3011946635  SOLV      861             0.0000000000
      2698       873  TIP3      OH2            -3.6215803985        4.7321042534      -23.6632346635  SOLV      862             0.0000000000
      2699       873  TIP3      H1             -4.4849103985        4.3533142534      -23.8287646635  SOLV      862             0.0000000000
      2700       873  TIP3      H2             -3.0172103985        3.9935842534      -23.7376546635  SOLV      862             0.0000000000
      2701       874  TIP3      OH2            -5.8966703985        0.8869342534      -40.4900846635  SOLV      863             0.0000000000
      2702       874  TIP3      H1             -5.2860903985        0.5156142534      -39.8532646635  SOLV      863             0.0000000000
      2703       874  TIP3      H2             -6.7335203985        0.4656242534      -40.2940846635  SOLV      863             0.0000000000
      2704       875  TIP3      OH2            -6.2641003985        2.4417742534      -35.5240946635  SOLV      864             0.0000000000
      2705       875  TIP3      H1             -5.9843903985        1.5348142534      -35.3999246635  SOLV      864             0.0000000000
      2706       875  TIP3      H2             -5.5049303985        2.8759242534      -35.9131746635  SOLV      864             0.0000000000
      2707       876  TIP3      OH2            -5.6522703985        3.0235142534      -30.0882046635  SOLV      865             0.0000000000
      2708       876  TIP3      H1             -4.7194703985        3.2355042534      -30.1226046635  SOLV      865             0.0000000000
      2709       876  TIP3      H2             -5.8875203985        3.1247242534      -29.1659046635  SOLV      865             0.0000000000
      2710       877  TIP3      OH2            -5.6230803985        3.7600442534      -27.3122646635  SOLV      866             0.0000000000
      2711       877  TIP3      H1             -6.4659503985        4.0280842534      -26.9462846635  SOLV      866             0.0000000000
      2712       877  TIP3      H2             -5.1806503985        4.5822342534      -27.5231546635  SOLV      866             0.0000000000
      2713       878  TIP3      OH2           -21.3418603985        2.2079142534      -23.8353446635  SOLV      867             0.0000000000
      2714       878  TIP3      H1            -20.4223703985        2.0857442534      -23.5990346635  SOLV      867             0.0000000000
      2715       878  TIP3      H2            -21.7914103985        1.4578842534      -23.4459946635  SOLV      867             0.0000000000
      2716       879  TIP3      OH2            -3.3399203985       -2.2599357466      -21.9587646635  SOLV      868             0.0000000000
      2717       879  TIP3      H1             -2.9902203985       -2.9135857466      -22.5642946635  SOLV      868             0.0000000000
      2718       879  TIP3      H2             -3.1929703985       -1.4225257466      -22.3985046635  SOLV      868             0.0000000000
      2719       880  TIP3      OH2            -5.6506203985       -0.2952957466      -35.4758946635  SOLV      869             0.0000000000
      2720       880  TIP3      H1             -5.4681203985       -0.7441457466      -34.6503946635  SOLV      869             0.0000000000
      2721       880  TIP3      H2             -6.2503303985       -0.8798557466      -35.9394346635  SOLV      869             0.0000000000
      2722       881  TIP3      OH2           -20.1206103985        0.5200742534      -30.9440546635  SOLV      870             0.0000000000
      2723       881  TIP3      H1            -19.6754503985       -0.2716757466      -30.6420846635  SOLV      870             0.0000000000
      2724       881  TIP3      H2            -19.6543103985        1.2365942534      -30.5134946635  SOLV      870             0.0000000000
      2725       882  TIP3      OH2           -21.8165803985        3.5193742534      -29.8750346635  SOLV      871             0.0000000000
      2726       882  TIP3      H1            -21.3246003985        3.2984242534      -30.6658346635  SOLV      871             0.0000000000
      2727       882  TIP3      H2            -21.4544903985        4.3597142534      -29.5940846635  SOLV      871             0.0000000000
      2728       883  TIP3      OH2            -3.8202003985       -0.1504757466      -23.6096346635  SOLV      872             0.0000000000
      2729       883  TIP3      H1             -4.7376303985        0.1202342534      -23.6452846635  SOLV      872             0.0000000000
      2730       883  TIP3      H2             -3.6972603985       -0.6856357466      -24.3936646635  SOLV      872             0.0000000000
      2731       884  TIP3      OH2            -3.7840003985       -0.2274857466      -38.9478646635  SOLV      873             0.0000000000
      2732       884  TIP3      H1             -3.3717403985       -0.9489157466      -39.4230646635  SOLV      873             0.0000000000
      2733       884  TIP3      H2             -3.1023503985        0.4419742534      -38.8894346635  SOLV      873             0.0000000000
      2734       885  TIP3      OH2            -6.7322103985       14.7614542534      -33.8750546635  SOLV      874             0.0000000000
      2735       885  TIP3      H1             -6.0799203985       14.4136642534      -34.4831446635  SOLV      874             0.0000000000
      2736       885  TIP3      H2             -6.2218303985       15.2497742534      -33.2290846635  SOLV      874             0.0000000000
      2737       886  TIP3      OH2           -21.5393903985       -1.4848157466      -27.4765446635  SOLV      875             0.0000000000
      2738       886  TIP3      H1            -22.2043403985       -1.7307857466      -26.8334546635  SOLV      875             0.0000000000
      2739       886  TIP3      H2            -21.9822603985       -0.8627757466      -28.0537446635  SOLV      875             0.0000000000
      2740       887  TIP3      OH2           -19.3474603985       11.6905942534      -23.3319646635  SOLV      876             0.0000000000
      2741       887  TIP3      H1            -20.1682103985       11.8652442534      -23.7924946635  SOLV      876             0.0000000000
      2742       887  TIP3      H2            -19.5996803985       11.6170642534      -22.4115246635  SOLV      876             0.0000000000
      2743       888  TIP3      OH2           -16.3931703985       12.6647142534      -27.0735646635  SOLV      877             0.0000000000
      2744       888  TIP3      H1            -16.8180603985       13.4745642534      -27.3561046635  SOLV      877             0.0000000000
      2745       888  TIP3      H2            -15.4888903985       12.7501242534      -27.3755846635  SOLV      877             0.0000000000
      2746       889  TIP3      OH2           -12.0820303985       14.0637142534      -24.1141946635  SOLV      878             0.0000000000
      2747       889  TIP3      H1            -11.8972803985       13.7303242534      -23.2361646635  SOLV      878             0.0000000000
      2748       889  TIP3      H2            -11.2355803985       14.3735742534      -24.4362746635  SOLV      878             0.0000000000
      2749       890  TIP3      OH2            -9.7369903985       15.3496042534      -24.8700546635  SOLV      879             0.0000000000
      2750       890  TIP3      H1             -9.0601003985       14.7168342534      -25.1101346635  SOLV      879             0.0000000000
      2751       890  TIP3      H2             -9.4151103985       15.7506542534      -24.0627246635  SOLV      879             0.0000000000
      2752       891  TIP3      OH2            -4.8196103985       -2.0608457466      -25.7905546635  SOLV      880             0.0000000000
      2753       891  TIP3      H1             -5.6322603985       -1.7358157466      -26.1780846635  SOLV      880             0.0000000000
      2754       891  TIP3      H2             -4.5867603985       -2.8209957466      -26.3236446635  SOLV      880             0.0000000000
      2755       892  TIP3      OH2           -18.9915003985       15.9211042534      -27.0260346635  SOLV      881             0.0000000000
      2756       892  TIP3      H1            -19.7118603985       16.3612042534      -27.4772646635  SOLV      881             0.0000000000
      2757       892  TIP3      H2            -19.3571003985       15.6705742534      -26.1776346635  SOLV      881             0.0000000000
      2758       893  TIP3      OH2           -16.5242403985       15.5214942534      -27.9963146635  SOLV      882             0.0000000000
      2759       893  TIP3      H1            -17.3890203985       15.5933442534      -27.5923046635  SOLV      882             0.0000000000
      2760       893  TIP3      H2            -16.5793403985       16.0682242534      -28.7800646635  SOLV      882             0.0000000000
      2761       894  TIP3      OH2           -11.8136803985       15.4093842534      -28.8207146635  SOLV      883             0.0000000000
      2762       894  TIP3      H1            -12.2702803985       15.9383542534      -29.4748746635  SOLV      883             0.0000000000
      2763       894  TIP3      H2            -11.6508803985       16.0125242534      -28.0954846635  SOLV      883             0.0000000000
      2764       895  TIP3      OH2            -9.4860503985       14.2873442534      -27.8756846635  SOLV      884             0.0000000000
      2765       895  TIP3      H1            -10.3906803985       14.4523642534      -28.1414746635  SOLV      884             0.0000000000
      2766       895  TIP3      H2             -9.0571903985       15.1405642534      -27.9413446635  SOLV      884             0.0000000000
      2767       896  TIP3      OH2            -6.8818603985       15.8572542534      -27.5809046635  SOLV      885             0.0000000000
      2768       896  TIP3      H1             -7.0636603985       16.7731442534      -27.7914146635  SOLV      885             0.0000000000
      2769       896  TIP3      H2             -6.7050803985       15.4469642534      -28.4274446635  SOLV      885             0.0000000000
      2770       897  TIP3      OH2           -19.5766903985       14.5443542534      -30.1158546635  SOLV      886             0.0000000000
      2771       897  TIP3      H1            -19.5950903985       14.1188642534      -29.2586246635  SOLV      886             0.0000000000
      2772       897  TIP3      H2            -18.7719003985       14.2258542534      -30.5246346635  SOLV      886             0.0000000000
      2773       898  TIP3      OH2           -17.4353803985       13.2542242534      -31.4608646635  SOLV      887             0.0000000000
      2774       898  TIP3      H1            -17.6543103985       12.3379642534      -31.2912646635  SOLV      887             0.0000000000
      2775       898  TIP3      H2            -16.6111603985       13.3942642534      -30.9947246635  SOLV      887             0.0000000000
      2776       899  TIP3      OH2           -14.8981303985       13.7241542534      -30.6120646635  SOLV      888             0.0000000000
      2777       899  TIP3      H1            -14.6855603985       12.8360542534      -30.8989746635  SOLV      888             0.0000000000
      2778       899  TIP3      H2            -14.8336203985       13.6899242534      -29.6576646635  SOLV      888             0.0000000000
      2779       900  TIP3      OH2            -6.2470403985       -2.5043857466      -31.3550246635  SOLV      889             0.0000000000
      2780       900  TIP3      H1             -5.6432803985       -1.9568457466      -31.8569246635  SOLV      889             0.0000000000
      2781       900  TIP3      H2             -7.1168403985       -2.1853457466      -31.5956146635  SOLV      889             0.0000000000
      2782       901  TIP3      OH2            -4.5200003985       -1.3655157466      -33.0219346635  SOLV      890             0.0000000000
      2783       901  TIP3      H1             -3.9082503985       -1.8799457466      -33.5485746635  SOLV      890             0.0000000000
      2784       901  TIP3      H2             -4.1376603985       -0.4883057466      -32.9984946635  SOLV      890             0.0000000000
      2785       902  TIP3      OH2           -14.4837503985       -2.0510457466      -33.8324346635  SOLV      891             0.0000000000
      2786       902  TIP3      H1            -13.6094103985       -1.6626157466      -33.8620046635  SOLV      891             0.0000000000
      2787       902  TIP3      H2            -14.6196703985       -2.2662657466      -32.9097146635  SOLV      891             0.0000000000
      2788       903  TIP3      OH2            -8.9269103985       -2.0210657466      -32.1832646635  SOLV      892             0.0000000000
      2789       903  TIP3      H1             -8.8507503985       -1.9259057466      -33.1326646635  SOLV      892             0.0000000000
      2790       903  TIP3      H2             -9.2019903985       -2.9287757466      -32.0543546635  SOLV      892             0.0000000000
      2791       904  TIP3      OH2            -7.5736503985       -1.9952857466      -36.4907646635  SOLV      893             0.0000000000
      2792       904  TIP3      H1             -8.2765403985       -1.3803657466      -36.7006246635  SOLV      893             0.0000000000
      2793       904  TIP3      H2             -8.0185103985       -2.8326157466      -36.3596746635  SOLV      893             0.0000000000
      2794       905  TIP3      OH2           -13.3397503985        0.0293542534      -36.9426746635  SOLV      894             0.0000000000
      2795       905  TIP3      H1            -13.1616203985       -0.6173257466      -36.2598146635  SOLV      894             0.0000000000
      2796       905  TIP3      H2            -13.3931303985        0.8631242534      -36.4755646635  SOLV      894             0.0000000000
      2797       906  TIP3      OH2           -11.4613703985       14.9777642534      -38.5470046635  SOLV      895             0.0000000000
      2798       906  TIP3      H1            -10.5953503985       15.3445042534      -38.7251846635  SOLV      895             0.0000000000
      2799       906  TIP3      H2            -11.7080903985       14.5385642534      -39.3609246635  SOLV      895             0.0000000000
      2800       907  TIP3      OH2            -4.7524103985       14.5407942534      -35.8678946635  SOLV      896             0.0000000000
      2801       907  TIP3      H1             -4.9467003985       13.7930042534      -36.4329346635  SOLV      896             0.0000000000
      2802       907  TIP3      H2             -4.7914003985       15.2988042534      -36.4511046635  SOLV      896             0.0000000000
      2803       908  TIP3      OH2           -19.1052103985       -1.4635657466      -24.1281246635  SOLV      897             0.0000000000
      2804       908  TIP3      H1            -19.4713903985       -2.2293057466      -23.6856546635  SOLV      897             0.0000000000
      2805       908  TIP3      H2            -18.1923603985       -1.4345457466      -23.8416146635  SOLV      897             0.0000000000
      2806       909  TIP3      OH2           -17.1321303985       -2.1131257466      -22.5924146635  SOLV      898             0.0000000000
      2807       909  TIP3      H1            -16.2337703985       -2.3871057466      -22.7770746635  SOLV      898             0.0000000000
      2808       909  TIP3      H2            -17.5188203985       -2.8555257466      -22.1281546635  SOLV      898             0.0000000000
      2809       910  TIP3      OH2            -8.7109003985       -2.7805957466      -22.4101346635  SOLV      899             0.0000000000
      2810       910  TIP3      H1             -8.6341803985       -3.2065257466      -21.5563646635  SOLV      899             0.0000000000
      2811       910  TIP3      H2             -7.8172403985       -2.7671257466      -22.7527846635  SOLV      899             0.0000000000
      2812       911  TIP3      OH2            -5.5347903985       13.2920342534      -23.7177146635  SOLV      900             0.0000000000
      2813       911  TIP3      H1             -6.3166003985       13.1058342534      -24.2376546635  SOLV      900             0.0000000000
      2814       911  TIP3      H2             -5.6068003985       14.2214642534      -23.5004646635  SOLV      900             0.0000000000
      2815       912  TIP3      OH2             8.8712496015        7.1784742534      -33.6869946635  SOLV      901             0.0000000000
      2816       912  TIP3      H1              8.9603596015        8.1222942534      -33.8192846635  SOLV      901             0.0000000000
      2817       912  TIP3      H2              8.2330096015        6.9031142534      -34.3450546635  SOLV      901             0.0000000000
      2818       913  TIP3      OH2             7.8043796015        6.4335442534      -30.2681746635  SOLV      902             0.0000000000
      2819       913  TIP3      H1              7.7661296015        5.7871742534      -29.5632146635  SOLV      902             0.0000000000
      2820       913  TIP3      H2              7.4820296015        5.9669842534      -31.0393046635  SOLV      902             0.0000000000
      2821       914  TIP3      OH2             0.1728796015        6.0477542534      -28.6751846635  SOLV      903             0.0000000000
      2822       914  TIP3      H1              0.2140896015        5.4220842534      -27.9519446635  SOLV      903             0.0000000000
      2823       914  TIP3      H2              0.8756496015        6.6716142534      -28.4931446635  SOLV      903             0.0000000000
      2824       915  TIP3      OH2            11.5103996015        9.3725842534      -31.9666646635  SOLV      904             0.0000000000
      2825       915  TIP3      H1             11.0696696015        8.6521842534      -31.5161046635  SOLV      904             0.0000000000
      2826       915  TIP3      H2             11.4973696015       10.0933042534      -31.3368946635  SOLV      904             0.0000000000
      2827       916  TIP3      OH2             1.0961896015       10.4976442534      -30.1402746635  SOLV      905             0.0000000000
      2828       916  TIP3      H1              0.7267096015        9.6956942534      -30.5098446635  SOLV      905             0.0000000000
      2829       916  TIP3      H2              2.0372996015       10.3291342534      -30.0939346635  SOLV      905             0.0000000000
      2830       917  TIP3      OH2            -2.2937603985        4.1579042534      -34.7473946635  SOLV      906             0.0000000000
      2831       917  TIP3      H1             -2.7414203985        5.0037742534      -34.7657446635  SOLV      906             0.0000000000
      2832       917  TIP3      H2             -2.8546403985        3.5783242534      -35.2628846635  SOLV      906             0.0000000000
      2833       918  TIP3      OH2            -1.5831503985        6.3198642534      -32.6215946635  SOLV      907             0.0000000000
      2834       918  TIP3      H1             -1.3698003985        5.5500242534      -32.0942946635  SOLV      907             0.0000000000
      2835       918  TIP3      H2             -0.8453903985        6.4095342534      -33.2248346635  SOLV      907             0.0000000000
      2836       919  TIP3      OH2             8.6219496015       14.4767542534      -31.7546246635  SOLV      908             0.0000000000
      2837       919  TIP3      H1              9.2415896015       13.8002242534      -32.0277046635  SOLV      908             0.0000000000
      2838       919  TIP3      H2              8.4136896015       14.2588342534      -30.8461346635  SOLV      908             0.0000000000
      2839       920  TIP3      OH2             6.1938196015        8.8656842534      -29.8620746635  SOLV      909             0.0000000000
      2840       920  TIP3      H1              6.4976096015        8.1798242534      -30.4566646635  SOLV      909             0.0000000000
      2841       920  TIP3      H2              6.9152196015        8.9845542534      -29.2442746635  SOLV      909             0.0000000000
      2842       921  TIP3      OH2            14.8567996015        0.4672142534      -29.0014546635  SOLV      910             0.0000000000
      2843       921  TIP3      H1             14.9060196015        1.0773342534      -28.2655446635  SOLV      910             0.0000000000
      2844       921  TIP3      H2             15.2823096015        0.9283042534      -29.7243446635  SOLV      910             0.0000000000
      2845       922  TIP3      OH2             9.3345196015        3.2599242534      -29.5345946635  SOLV      911             0.0000000000
      2846       922  TIP3      H1              9.4771096015        2.3136242534      -29.5144346635  SOLV      911             0.0000000000
      2847       922  TIP3      H2              9.2284196015        3.4669042534      -30.4631046635  SOLV      911             0.0000000000
      2848       923  TIP3      OH2             2.4893496015        1.3615642534      -32.2621146635  SOLV      912             0.0000000000
      2849       923  TIP3      H1              2.5324596015        2.2214142534      -32.6804846635  SOLV      912             0.0000000000
      2850       923  TIP3      H2              2.0317596015        0.8090342534      -32.8957946635  SOLV      912             0.0000000000
      2851       924  TIP3      OH2            10.2116196015        1.4921242534      -33.8612846635  SOLV      913             0.0000000000
      2852       924  TIP3      H1             10.8580496015        1.1634442534      -33.2365246635  SOLV      913             0.0000000000
      2853       924  TIP3      H2             10.7215596015        2.0100242534      -34.4841446635  SOLV      913             0.0000000000
      2854       925  TIP3      OH2            -0.8905003985        3.7581442534      -31.4999746635  SOLV      914             0.0000000000
      2855       925  TIP3      H1             -0.2368403985        3.2083142534      -31.0679646635  SOLV      914             0.0000000000
      2856       925  TIP3      H2             -0.8665703985        3.4840442534      -32.4167746635  SOLV      914             0.0000000000
      2857       926  TIP3      OH2             4.2659496015        5.3082742534      -32.2848246635  SOLV      915             0.0000000000
      2858       926  TIP3      H1              4.8820496015        4.7818142534      -31.7754246635  SOLV      915             0.0000000000
      2859       926  TIP3      H2              3.6798296015        4.6681442534      -32.6884646635  SOLV      915             0.0000000000
      2860       927  TIP3      OH2            15.2482596015        1.9451342534      -26.7654746635  SOLV      916             0.0000000000
      2861       927  TIP3      H1             14.5597196015        2.6032042534      -26.8608146635  SOLV      916             0.0000000000
      2862       927  TIP3      H2             15.2637196015        1.7479242534      -25.8289346635  SOLV      916             0.0000000000
      2863       928  TIP3      OH2             1.2995396015        0.2794042534      -28.1880346635  SOLV      917             0.0000000000
      2864       928  TIP3      H1              1.0807096015        0.8094642534      -28.9544346635  SOLV      917             0.0000000000
      2865       928  TIP3      H2              0.6316296015        0.5059542534      -27.5408946635  SOLV      917             0.0000000000
      2866       929  TIP3      OH2             8.6685196015        9.7795142534      -34.6441246635  SOLV      918             0.0000000000
      2867       929  TIP3      H1              8.3730296015        9.4567442534      -35.4954346635  SOLV      918             0.0000000000
      2868       929  TIP3      H2              8.3442996015       10.6791842534      -34.6028646635  SOLV      918             0.0000000000
      2869       930  TIP3      OH2             3.8686796015        7.9549742534      -27.9006646635  SOLV      919             0.0000000000
      2870       930  TIP3      H1              3.1285896015        8.5531242534      -27.7971446635  SOLV      919             0.0000000000
      2871       930  TIP3      H2              4.5826296015        8.5089342534      -28.2163046635  SOLV      919             0.0000000000
      2872       931  TIP3      OH2            11.9754596015        0.7830542534      -31.8806946635  SOLV      920             0.0000000000
      2873       931  TIP3      H1             11.7602596015        0.0173942534      -31.3480946635  SOLV      920             0.0000000000
      2874       931  TIP3      H2             12.6311996015        1.2555142534      -31.3678446635  SOLV      920             0.0000000000
      2875       932  TIP3      OH2             0.8932696015        2.1715842534      -30.2358146635  SOLV      921             0.0000000000
      2876       932  TIP3      H1              1.5068996015        2.8043442534      -29.8625746635  SOLV      921             0.0000000000
      2877       932  TIP3      H2              1.4053396015        1.6990842534      -30.8921246635  SOLV      921             0.0000000000
      2878       933  TIP3      OH2             2.2761096015        9.9192742534      -27.1135146635  SOLV      922             0.0000000000
      2879       933  TIP3      H1              2.2708696015       10.7986242534      -27.4915846635  SOLV      922             0.0000000000
      2880       933  TIP3      H2              1.4225196015        9.8356842534      -26.6885246635  SOLV      922             0.0000000000
      2881       934  TIP3      OH2            -1.6028003985        9.5900642534      -36.3315846635  SOLV      923             0.0000000000
      2882       934  TIP3      H1             -1.8747103985        9.8191642534      -37.2202946635  SOLV      923             0.0000000000
      2883       934  TIP3      H2             -1.5572303985       10.4279442534      -35.8710546635  SOLV      923             0.0000000000
      2884       935  TIP3      OH2            12.0221696015       11.2116542534      -29.6187346635  SOLV      924             0.0000000000
      2885       935  TIP3      H1             11.0805396015       11.2700442534      -29.4570446635  SOLV      924             0.0000000000
      2886       935  TIP3      H2             12.2987796015       12.1177042534      -29.7557646635  SOLV      924             0.0000000000
      2887       936  TIP3      OH2            12.3228696015       -0.5018157466      -28.2013446635  SOLV      925             0.0000000000
      2888       936  TIP3      H1             11.5867896015        0.1088942534      -28.2392146635  SOLV      925             0.0000000000
      2889       936  TIP3      H2             13.0062696015       -0.0869157466      -28.7277046635  SOLV      925             0.0000000000
      2890       937  TIP3      OH2             5.3260096015       -2.4150857466      -30.7355446635  SOLV      926             0.0000000000
      2891       937  TIP3      H1              5.2084296015       -3.3634857466      -30.7897146635  SOLV      926             0.0000000000
      2892       937  TIP3      H2              4.4710196015       -2.0824757466      -30.4624346635  SOLV      926             0.0000000000
      2893       938  TIP3      OH2            10.2742896015       12.9930042534      -32.9935746635  SOLV      927             0.0000000000
      2894       938  TIP3      H1             10.6995196015       12.2857942534      -33.4786146635  SOLV      927             0.0000000000
      2895       938  TIP3      H2             10.5912896015       13.7942742534      -33.4103546635  SOLV      927             0.0000000000
      2896       939  TIP3      OH2            11.4339396015       10.8938542534      -34.4849146635  SOLV      928             0.0000000000
      2897       939  TIP3      H1             11.1764196015       10.2038642534      -35.0963246635  SOLV      928             0.0000000000
      2898       939  TIP3      H2             11.5050196015       10.4509742534      -33.6393246635  SOLV      928             0.0000000000
      2899       940  TIP3      OH2            13.1199596015        9.4605242534      -26.0075646635  SOLV      929             0.0000000000
      2900       940  TIP3      H1             13.2595896015        8.8687742534      -26.7468646635  SOLV      929             0.0000000000
      2901       940  TIP3      H2             13.2872396015       10.3331142534      -26.3636846635  SOLV      929             0.0000000000
      2902       941  TIP3      OH2             7.5924996015        6.4224742534      -36.2349646635  SOLV      930             0.0000000000
      2903       941  TIP3      H1              6.8810496015        6.9574442534      -36.5869146635  SOLV      930             0.0000000000
      2904       941  TIP3      H2              8.2834596015        6.4776842534      -36.8950746635  SOLV      930             0.0000000000
      2905       942  TIP3      OH2            14.9618896015        5.8003242534      -27.9415246635  SOLV      931             0.0000000000
      2906       942  TIP3      H1             14.3092996015        6.4948842534      -27.8524346635  SOLV      931             0.0000000000
      2907       942  TIP3      H2             15.4269196015        6.0104142534      -28.7513646635  SOLV      931             0.0000000000
      2908       943  TIP3      OH2            10.9982696015        6.6318042534      -35.2833746635  SOLV      932             0.0000000000
      2909       943  TIP3      H1             10.2663696015        6.8601742534      -34.7103146635  SOLV      932             0.0000000000
      2910       943  TIP3      H2             11.4454896015        5.9180742534      -34.8286246635  SOLV      932             0.0000000000
      2911       944  TIP3      OH2            10.8956196015        4.8060642534      -26.2156746635  SOLV      933             0.0000000000
      2912       944  TIP3      H1             10.9755296015        5.5695042534      -25.6438246635  SOLV      933             0.0000000000
      2913       944  TIP3      H2             10.2943896015        5.0853042534      -26.9061646635  SOLV      933             0.0000000000
      2914       945  TIP3      OH2             2.6436396015        7.2624242534      -33.4008746635  SOLV      934             0.0000000000
      2915       945  TIP3      H1              2.3131596015        6.8917642534      -34.2191746635  SOLV      934             0.0000000000
      2916       945  TIP3      H2              3.2320496015        6.5918242534      -33.0540446635  SOLV      934             0.0000000000
      2917       946  TIP3      OH2             4.0103896015       10.6904842534      -30.7196546635  SOLV      935             0.0000000000
      2918       946  TIP3      H1              3.9155196015       10.1117942534      -31.4761946635  SOLV      935             0.0000000000
      2919       946  TIP3      H2              4.7397496015       10.3190542534      -30.2233746635  SOLV      935             0.0000000000
      2920       947  TIP3      OH2             3.0101896015        6.0309842534      -29.7673746635  SOLV      936             0.0000000000
      2921       947  TIP3      H1              3.5754396015        6.1524042534      -30.5302546635  SOLV      936             0.0000000000
      2922       947  TIP3      H2              3.3290796015        6.6684842534      -29.1285246635  SOLV      936             0.0000000000
      2923       948  TIP3      OH2             9.3194096015       11.5341742534      -29.0333246635  SOLV      937             0.0000000000
      2924       948  TIP3      H1              9.0790696015       12.1964842534      -28.3854046635  SOLV      937             0.0000000000
      2925       948  TIP3      H2              9.1212296015       10.6996942534      -28.6083646635  SOLV      937             0.0000000000
      2926       949  TIP3      OH2             3.8902596015       10.4302542534      -25.0501846635  SOLV      938             0.0000000000
      2927       949  TIP3      H1              3.5790096015       11.2125742534      -24.5948646635  SOLV      938             0.0000000000
      2928       949  TIP3      H2              3.2402796015       10.2771642534      -25.7359846635  SOLV      938             0.0000000000
      2929       950  TIP3      OH2             0.8102496015        6.6283642534      -25.8216146635  SOLV      939             0.0000000000
      2930       950  TIP3      H1              0.8805696015        7.2790442534      -25.1231146635  SOLV      939             0.0000000000
      2931       950  TIP3      H2             -0.0805303985        6.7311142534      -26.1565246635  SOLV      939             0.0000000000
      2932       951  TIP3      OH2             7.5957096015       12.5309442534      -34.1629446635  SOLV      940             0.0000000000
      2933       951  TIP3      H1              8.0694696015       12.8265742534      -33.3855246635  SOLV      940             0.0000000000
      2934       951  TIP3      H2              7.0326396015       13.2691042534      -34.3959846635  SOLV      940             0.0000000000
      2935       952  TIP3      OH2             2.1298496015       12.5017542534      -24.2868046635  SOLV      941             0.0000000000
      2936       952  TIP3      H1              2.1373796015       12.3657242534      -25.2342546635  SOLV      941             0.0000000000
      2937       952  TIP3      H2              1.2138896015       12.3845642534      -24.0348046635  SOLV      941             0.0000000000
      2938       953  TIP3      OH2            13.5680596015       -2.4558657466      -37.7852846635  SOLV      942             0.0000000000
      2939       953  TIP3      H1             12.6681296015       -2.3169657466      -37.4902246635  SOLV      942             0.0000000000
      2940       953  TIP3      H2             13.8198996015       -1.6244057466      -38.1871146635  SOLV      942             0.0000000000
      2941       954  TIP3      OH2             1.6339096015        6.3318542534      -35.8115946635  SOLV      943             0.0000000000
      2942       954  TIP3      H1              1.3420396015        7.1000242534      -36.3024646635  SOLV      943             0.0000000000
      2943       954  TIP3      H2              0.9594296015        5.6724742534      -35.9744546635  SOLV      943             0.0000000000
      2944       955  TIP3      OH2            -2.2730803985        8.6947742534      -26.9966146635  SOLV      944             0.0000000000
      2945       955  TIP3      H1             -2.7742403985        8.6667142534      -27.8116446635  SOLV      944             0.0000000000
      2946       955  TIP3      H2             -2.2677103985        7.7890942534      -26.6868846635  SOLV      944             0.0000000000
      2947       956  TIP3      OH2            -2.5228103985       11.4751542534      -30.1125946635  SOLV      945             0.0000000000
      2948       956  TIP3      H1             -1.5767503985       11.3308542534      -30.1316446635  SOLV      945             0.0000000000
      2949       956  TIP3      H2             -2.6351803985       12.2594342534      -29.5754746635  SOLV      945             0.0000000000
      2950       957  TIP3      OH2            15.6750396015       12.1411242534      -24.4302246635  SOLV      946             0.0000000000
      2951       957  TIP3      H1             15.6257196015       11.1859342534      -24.4674646635  SOLV      946             0.0000000000
      2952       957  TIP3      H2             14.8482696015       12.4086542534      -24.0288446635  SOLV      946             0.0000000000
      2953       958  TIP3      OH2             6.6534396015       11.7150442534      -25.5540846635  SOLV      947             0.0000000000
      2954       958  TIP3      H1              6.7408996015       12.5415042534      -25.0791746635  SOLV      947             0.0000000000
      2955       958  TIP3      H2              5.7899496015       11.3854242534      -25.3051546635  SOLV      947             0.0000000000
      2956       959  TIP3      OH2             0.7213996015       14.2761142534      -33.9671246635  SOLV      948             0.0000000000
      2957       959  TIP3      H1              0.8734396015       13.9281542534      -33.0884746635  SOLV      948             0.0000000000
      2958       959  TIP3      H2             -0.1295603985       13.9198442534      -34.2224046635  SOLV      948             0.0000000000
      2959       960  TIP3      OH2            12.8270196015        3.6343742534      -23.9500046635  SOLV      949             0.0000000000
      2960       960  TIP3      H1             12.4196996015        4.1149342534      -24.6706746635  SOLV      949             0.0000000000
      2961       960  TIP3      H2             12.8675896015        2.7289742534      -24.2579246635  SOLV      949             0.0000000000
      2962       961  TIP3      OH2            -0.0240303985       10.0183142534      -25.9533346635  SOLV      950             0.0000000000
      2963       961  TIP3      H1              0.1920996015        9.6568742534      -25.0937546635  SOLV      950             0.0000000000
      2964       961  TIP3      H2             -0.8795603985        9.6436942534      -26.1629846635  SOLV      950             0.0000000000
      2965       962  TIP3      OH2             2.5947696015       -1.5116357466      -29.9579146635  SOLV      951             0.0000000000
      2966       962  TIP3      H1              1.7331396015       -1.5988157466      -30.3656246635  SOLV      951             0.0000000000
      2967       962  TIP3      H2              2.5723396015       -0.6556257466      -29.5301546635  SOLV      951             0.0000000000
      2968       963  TIP3      OH2             7.2575496015       -1.7895957466      -26.5832146635  SOLV      952             0.0000000000
      2969       963  TIP3      H1              7.6778596015       -2.2048857466      -25.8301546635  SOLV      952             0.0000000000
      2970       963  TIP3      H2              6.3245096015       -1.9682657466      -26.4660146635  SOLV      952             0.0000000000
      2971       964  TIP3      OH2            10.5840396015        1.9659242534      -25.7297646635  SOLV      953             0.0000000000
      2972       964  TIP3      H1             10.0699896015        1.8401442534      -24.9321646635  SOLV      953             0.0000000000
      2973       964  TIP3      H2             10.4285096015        2.8782342534      -25.9741446635  SOLV      953             0.0000000000
      2974       965  TIP3      OH2             6.9192796015        0.7027442534      -39.2981346635  SOLV      954             0.0000000000
      2975       965  TIP3      H1              6.6657596015        0.7219042534      -38.3753246635  SOLV      954             0.0000000000
      2976       965  TIP3      H2              6.6624896015       -0.1687157466      -39.5995146635  SOLV      954             0.0000000000
      2977       966  TIP3      OH2             2.6857796015        3.4538142534      -28.8628946635  SOLV      955             0.0000000000
      2978       966  TIP3      H1              2.0439896015        3.4135442534      -28.1538846635  SOLV      955             0.0000000000
      2979       966  TIP3      H2              2.7229796015        4.3802842534      -29.1005946635  SOLV      955             0.0000000000
      2980       967  TIP3      OH2             2.6826896015        3.6748242534      -33.9508946635  SOLV      956             0.0000000000
      2981       967  TIP3      H1              1.7899796015        3.3344342534      -34.0095146635  SOLV      956             0.0000000000
      2982       967  TIP3      H2              3.1333496015        3.2979142534      -34.7065746635  SOLV      956             0.0000000000
      2983       968  TIP3      OH2             8.2182396015        4.0908542534      -35.1338146635  SOLV      957             0.0000000000
      2984       968  TIP3      H1              7.8092696015        4.9057142534      -35.4253346635  SOLV      957             0.0000000000
      2985       968  TIP3      H2              8.9388596015        3.9508642534      -35.7481046635  SOLV      957             0.0000000000
      2986       969  TIP3      OH2             7.3203996015        4.2664942534      -23.6457446635  SOLV      958             0.0000000000
      2987       969  TIP3      H1              6.7577796015        3.5616542534      -23.3249646635  SOLV      958             0.0000000000
      2988       969  TIP3      H2              8.1467396015        4.1456842534      -23.1779846635  SOLV      958             0.0000000000
      2989       970  TIP3      OH2             9.2230096015        3.5368942534      -32.3198446635  SOLV      959             0.0000000000
      2990       970  TIP3      H1              9.0274596015        4.1425742534      -33.0347846635  SOLV      959             0.0000000000
      2991       970  TIP3      H2              9.4042696015        2.7034142534      -32.7542146635  SOLV      959             0.0000000000
      2992       971  TIP3      OH2             0.4358296015        3.7741642534      -26.9956946635  SOLV      960             0.0000000000
      2993       971  TIP3      H1              0.3977696015        4.1743242534      -26.1269846635  SOLV      960             0.0000000000
      2994       971  TIP3      H2             -0.0550603985        2.9574042534      -26.9054046635  SOLV      960             0.0000000000
      2995       972  TIP3      OH2             3.8015696015        1.1483942534      -40.1970946635  SOLV      961             0.0000000000
      2996       972  TIP3      H1              3.3706396015        0.7034042534      -39.4673546635  SOLV      961             0.0000000000
      2997       972  TIP3      H2              3.0834396015        1.5200242534      -40.7093446635  SOLV      961             0.0000000000
      2998       973  TIP3      OH2            -2.9560903985        0.8903442534      -33.1452246635  SOLV      962             0.0000000000
      2999       973  TIP3      H1             -2.3253203985        0.8615542534      -32.4258346635  SOLV      962             0.0000000000
      3000       973  TIP3      H2             -2.5066603985        0.4652142534      -33.8756346635  SOLV      962             0.0000000000
      3001       974  TIP3      OH2            -1.6818803985        1.6365442534      -37.7211846635  SOLV      963             0.0000000000
      3002       974  TIP3      H1             -1.2077103985        2.2275342534      -38.3060946635  SOLV      963             0.0000000000
      3003       974  TIP3      H2             -2.3992403985        2.1668342534      -37.3741746635  SOLV      963             0.0000000000
      3004       975  TIP3      OH2             8.4869296015        5.1750242534      -27.6486046635  SOLV      964             0.0000000000
      3005       975  TIP3      H1              8.8104096015        4.5439942534      -28.2915546635  SOLV      964             0.0000000000
      3006       975  TIP3      H2              8.0468596015        4.6402442534      -26.9878646635  SOLV      964             0.0000000000
      3007       976  TIP3      OH2             5.2642196015        1.1025742534      -32.8644846635  SOLV      965             0.0000000000
      3008       976  TIP3      H1              4.3533296015        1.1592542534      -32.5758846635  SOLV      965             0.0000000000
      3009       976  TIP3      H2              5.7695096015        1.0421242534      -32.0537646635  SOLV      965             0.0000000000
      3010       977  TIP3      OH2             0.0925596015        2.7312042534      -34.0377246635  SOLV      966             0.0000000000
      3011       977  TIP3      H1             -0.7966403985        2.8307542534      -34.3777646635  SOLV      966             0.0000000000
      3012       977  TIP3      H2              0.3890496015        1.8895042534      -34.3839346635  SOLV      966             0.0000000000
      3013       978  TIP3      OH2             3.7457396015        2.7314642534      -36.3812646635  SOLV      967             0.0000000000
      3014       978  TIP3      H1              4.6772896015        2.8604642534      -36.2029546635  SOLV      967             0.0000000000
      3015       978  TIP3      H2              3.5307696015        3.4008942534      -37.0307946635  SOLV      967             0.0000000000
      3016       979  TIP3      OH2             9.6694096015        0.3372042534      -29.6003046635  SOLV      968             0.0000000000
      3017       979  TIP3      H1              8.9925696015        0.4685142534      -28.9363346635  SOLV      968             0.0000000000
      3018       979  TIP3      H2              9.1838996015        0.1821542534      -30.4105346635  SOLV      968             0.0000000000
      3019       980  TIP3      OH2             2.4197596015        3.9256842534      -38.8146546635  SOLV      969             0.0000000000
      3020       980  TIP3      H1              1.8772696015        3.5460642534      -39.5058946635  SOLV      969             0.0000000000
      3021       980  TIP3      H2              3.2532496015        4.1201542534      -39.2432446635  SOLV      969             0.0000000000
      3022       981  TIP3      OH2            12.9569196015       16.0087442534      -23.3235446635  SOLV      970             0.0000000000
      3023       981  TIP3      H1             13.1567896015       16.4329342534      -24.1580146635  SOLV      970             0.0000000000
      3024       981  TIP3      H2             13.6122896015       16.3525642534      -22.7165046635  SOLV      970             0.0000000000
      3025       982  TIP3      OH2             0.5548996015        8.4828742534      -23.7154946635  SOLV      971             0.0000000000
      3026       982  TIP3      H1              1.2871396015        8.7374642534      -23.1540446635  SOLV      971             0.0000000000
      3027       982  TIP3      H2             -0.2252303985        8.6874142534      -23.1999546635  SOLV      971             0.0000000000
      3028       983  TIP3      OH2             6.5841896015        3.8898742534      -30.9775246635  SOLV      972             0.0000000000
      3029       983  TIP3      H1              7.1485296015        3.3435342534      -31.5245646635  SOLV      972             0.0000000000
      3030       983  TIP3      H2              6.4365296015        3.3680642534      -30.1887646635  SOLV      972             0.0000000000
      3031       984  TIP3      OH2             1.5861596015        0.0264842534      -34.5590446635  SOLV      973             0.0000000000
      3032       984  TIP3      H1              1.2691096015       -0.8759857466      -34.5945046635  SOLV      973             0.0000000000
      3033       984  TIP3      H2              2.3675696015        0.0282242534      -35.1118846635  SOLV      973             0.0000000000
      3034       985  TIP3      OH2             5.2107796015        2.2784842534      -28.5634846635  SOLV      974             0.0000000000
      3035       985  TIP3      H1              4.3753096015        2.7324342534      -28.4532446635  SOLV      974             0.0000000000
      3036       985  TIP3      H2              5.7348396015        2.5543342534      -27.8114946635  SOLV      974             0.0000000000
      3037       986  TIP3      OH2             5.7550396015        8.4912542534      -36.8788446635  SOLV      975             0.0000000000
      3038       986  TIP3      H1              5.0101396015        7.9837842534      -37.2010546635  SOLV      975             0.0000000000
      3039       986  TIP3      H2              5.6207596015        8.5400542534      -35.9323646635  SOLV      975             0.0000000000
      3040       987  TIP3      OH2            12.9049296015        7.6240742534      -28.0920846635  SOLV      976             0.0000000000
      3041       987  TIP3      H1             13.5468096015        8.0807042534      -28.6358646635  SOLV      976             0.0000000000
      3042       987  TIP3      H2             12.0746196015        7.7373142534      -28.5546746635  SOLV      976             0.0000000000
      3043       988  TIP3      OH2             9.6527196015        1.3052442534      -38.6795846635  SOLV      977             0.0000000000
      3044       988  TIP3      H1              8.7141396015        1.4168042534      -38.8307046635  SOLV      977             0.0000000000
      3045       988  TIP3      H2              9.9499296015        2.1619342534      -38.3730146635  SOLV      977             0.0000000000
      3046       989  TIP3      OH2             7.2742496015        8.6755842534      -25.6419346635  SOLV      978             0.0000000000
      3047       989  TIP3      H1              6.9288596015        8.2938242534      -24.8349746635  SOLV      978             0.0000000000
      3048       989  TIP3      H2              7.0742596015        9.6089442534      -25.5706446635  SOLV      978             0.0000000000
      3049       990  TIP3      OH2            10.3710696015        3.1725142534      -37.0188446635  SOLV      979             0.0000000000
      3050       990  TIP3      H1             11.2629696015        3.0350142534      -36.6997246635  SOLV      979             0.0000000000
      3051       990  TIP3      H2             10.4274296015        3.9631242534      -37.5554946635  SOLV      979             0.0000000000
      3052       991  TIP3      OH2             0.8798696015        7.7862542534      -31.1090546635  SOLV      980             0.0000000000
      3053       991  TIP3      H1              1.6245896015        7.7838242534      -31.7104046635  SOLV      980             0.0000000000
      3054       991  TIP3      H2              0.9575296015        6.9626342534      -30.6275446635  SOLV      980             0.0000000000
      3055       992  TIP3      OH2            -2.1121603985        6.2469442534      -25.7942046635  SOLV      981             0.0000000000
      3056       992  TIP3      H1             -1.8893003985        5.8289042534      -24.9624546635  SOLV      981             0.0000000000
      3057       992  TIP3      H2             -2.7141503985        5.6344442534      -26.2169246635  SOLV      981             0.0000000000
      3058       993  TIP3      OH2             4.9043296015        5.7639342534      -23.5812346635  SOLV      982             0.0000000000
      3059       993  TIP3      H1              4.6084096015        5.5982342534      -24.4763246635  SOLV      982             0.0000000000
      3060       993  TIP3      H2              5.8358496015        5.5439642534      -23.5918446635  SOLV      982             0.0000000000
      3061       994  TIP3      OH2             9.5246096015       11.1371342534      -25.6914346635  SOLV      983             0.0000000000
      3062       994  TIP3      H1              8.6240396015       11.3203942534      -25.9590446635  SOLV      983             0.0000000000
      3063       994  TIP3      H2              9.5587196015       11.3960642534      -24.7705546635  SOLV      983             0.0000000000
      3064       995  TIP3      OH2            15.2191396015        9.1820942534      -24.4870246635  SOLV      984             0.0000000000
      3065       995  TIP3      H1             14.3679896015        9.4204742534      -24.8543846635  SOLV      984             0.0000000000
      3066       995  TIP3      H2             15.8094796015        9.1654142534      -25.2403146635  SOLV      984             0.0000000000
      3067       996  TIP3      OH2            10.7114996015        6.9759142534      -29.8377746635  SOLV      985             0.0000000000
      3068       996  TIP3      H1              9.7831896015        6.7441042534      -29.8648446635  SOLV      985             0.0000000000
      3069       996  TIP3      H2             11.1626096015        6.1988942534      -30.1678946635  SOLV      985             0.0000000000
      3070       997  TIP3      OH2             3.2548096015       11.3040742534      -33.7049046635  SOLV      986             0.0000000000
      3071       997  TIP3      H1              3.7820296015       12.0775142534      -33.9050246635  SOLV      986             0.0000000000
      3072       997  TIP3      H2              2.3746596015       11.5289942534      -34.0065046635  SOLV      986             0.0000000000
      3073       998  TIP3      OH2            -0.9904203985        6.1664842534      -39.1176646635  SOLV      987             0.0000000000
      3074       998  TIP3      H1             -0.3744303985        6.7932042534      -38.7381846635  SOLV      987             0.0000000000
      3075       998  TIP3      H2             -1.8521603985        6.4824642534      -38.8460146635  SOLV      987             0.0000000000
      3076       999  TIP3      OH2             4.6820396015        8.9670642534      -34.1284746635  SOLV      988             0.0000000000
      3077       999  TIP3      H1              4.4410396015        9.8925042534      -34.0869446635  SOLV      988             0.0000000000
      3078       999  TIP3      H2              3.9413996015        8.5081942534      -33.7320846635  SOLV      988             0.0000000000
      3079      1000  TIP3      OH2             5.1966996015       13.1164242534      -27.8133646635  SOLV      989             0.0000000000
      3080      1000  TIP3      H1              5.5591696015       13.9709842534      -28.0469246635  SOLV      989             0.0000000000
      3081      1000  TIP3      H2              5.7282196015       12.8245842534      -27.0727346635  SOLV      989             0.0000000000
      3082      1001  TIP3      OH2             3.3651196015       13.9888242534      -34.5832546635  SOLV      990             0.0000000000
      3083      1001  TIP3      H1              2.4151696015       14.0945642534      -34.5319246635  SOLV      990             0.0000000000
      3084      1001  TIP3      H2              3.7169296015       14.8095642534      -34.2385046635  SOLV      990             0.0000000000
      3085      1002  TIP3      OH2             8.7407796015        9.2154942534      -28.1128046635  SOLV      991             0.0000000000
      3086      1002  TIP3      H1              8.3149096015        8.9876642534      -27.2864046635  SOLV      991             0.0000000000
      3087      1002  TIP3      H2              9.3213596015        8.4766742534      -28.2952746635  SOLV      991             0.0000000000
      3088      1003  TIP3      OH2            11.3991996015       13.7674442534      -25.6433246635  SOLV      992             0.0000000000
      3089      1003  TIP3      H1             10.7975196015       13.2117342534      -26.1386946635  SOLV      992             0.0000000000
      3090      1003  TIP3      H2             11.6805696015       14.4344242534      -26.2695846635  SOLV      992             0.0000000000
      3091      1004  TIP3      OH2            -0.4782103985        1.0002142534      -26.2360646635  SOLV      993             0.0000000000
      3092      1004  TIP3      H1             -1.3709803985        1.3387542534      -26.3036646635  SOLV      993             0.0000000000
      3093      1004  TIP3      H2             -0.5769303985        0.1448242534      -25.8179846635  SOLV      993             0.0000000000
      3094      1005  TIP3      OH2            -0.8270103985       12.8046542534      -27.8011246635  SOLV      994             0.0000000000
      3095      1005  TIP3      H1             -0.6099803985       11.8728942534      -27.8321546635  SOLV      994             0.0000000000
      3096      1005  TIP3      H2             -0.5806603985       13.0791542534      -26.9178446635  SOLV      994             0.0000000000
      3097      1006  TIP3      OH2             3.9715096015       10.8265342534      -38.1356446635  SOLV      995             0.0000000000
      3098      1006  TIP3      H1              4.1183096015       10.3065142534      -37.3455546635  SOLV      995             0.0000000000
      3099      1006  TIP3      H2              3.9686796015       11.7332942534      -37.8290546635  SOLV      995             0.0000000000
      3100      1007  TIP3      OH2             0.4246196015        8.0788642534      -37.6251046635  SOLV      996             0.0000000000
      3101      1007  TIP3      H1             -0.2614503985        8.4311142534      -37.0581346635  SOLV      996             0.0000000000
      3102      1007  TIP3      H2              0.9474096015        8.8418242534      -37.8716746635  SOLV      996             0.0000000000
      3103      1008  TIP3      OH2             8.2561296015        0.7412442534      -27.3462046635  SOLV      997             0.0000000000
      3104      1008  TIP3      H1              8.9549196015        0.8151142534      -26.6962346635  SOLV      997             0.0000000000
      3105      1008  TIP3      H2              7.8752696015       -0.1232557466      -27.1919146635  SOLV      997             0.0000000000
      3106      1009  TIP3      OH2             9.0406196015        0.3934142534      -36.2489746635  SOLV      998             0.0000000000
      3107      1009  TIP3      H1              9.2604496015        0.8649542534      -37.0524346635  SOLV      998             0.0000000000
      3108      1009  TIP3      H2              9.5990196015        0.7876742534      -35.5789146635  SOLV      998             0.0000000000
      3109      1010  TIP3      OH2             6.2406096015        2.1212942534      -35.4141346635  SOLV      999             0.0000000000
      3110      1010  TIP3      H1              7.0528696015        2.6256142534      -35.3679646635  SOLV      999             0.0000000000
      3111      1010  TIP3      H2              5.9959096015        1.9762642534      -34.5001746635  SOLV      999             0.0000000000
      3112      1011  TIP3      OH2             6.7762496015        3.1075642534      -26.2294746635  SOLV      1000            0.0000000000
      3113      1011  TIP3      H1              6.8952796015        3.6811042534      -25.4724346635  SOLV      1000            0.0000000000
      3114      1011  TIP3      H2              7.4317096015        2.4195042534      -26.1146946635  SOLV      1000            0.0000000000
      3115      1012  TIP3      OH2             7.1242796015       -0.7974057466      -34.4760246635  SOLV      1001            0.0000000000
      3116      1012  TIP3      H1              6.7776296015       -0.1803457466      -33.8315946635  SOLV      1001            0.0000000000
      3117      1012  TIP3      H2              7.7829696015       -0.2968357466      -34.9574746635  SOLV      1001            0.0000000000
      3118      1013  TIP3      OH2             4.0475396015       13.5676142534      -37.4045346635  SOLV      1002            0.0000000000
      3119      1013  TIP3      H1              4.2084096015       14.3673642534      -37.9052746635  SOLV      1002            0.0000000000
      3120      1013  TIP3      H2              3.8503196015       13.8742142534      -36.5194746635  SOLV      1002            0.0000000000
      3121      1014  TIP3      OH2             2.7819796015        0.2655342534      -37.7887746635  SOLV      1003            0.0000000000
      3122      1014  TIP3      H1              2.6984596015        1.1538442534      -37.4421346635  SOLV      1003            0.0000000000
      3123      1014  TIP3      H2              3.6720096015        0.0002042534      -37.5570946635  SOLV      1003            0.0000000000
      3124      1015  TIP3      OH2            12.9808296015        1.0145942534      -25.3945046635  SOLV      1004            0.0000000000
      3125      1015  TIP3      H1             12.0644096015        1.2767642534      -25.4821346635  SOLV      1004            0.0000000000
      3126      1015  TIP3      H2             13.3163296015        1.0114942534      -26.2909746635  SOLV      1004            0.0000000000
      3127      1016  TIP3      OH2            11.5829296015        4.7646942534      -31.2987746635  SOLV      1005            0.0000000000
      3128      1016  TIP3      H1             10.7853696015        4.3497142534      -31.6272746635  SOLV      1005            0.0000000000
      3129      1016  TIP3      H2             12.0280396015        4.0740642534      -30.8077246635  SOLV      1005            0.0000000000
      3130      1017  TIP3      OH2             1.0405096015       10.6927542534      -38.7283246635  SOLV      1006            0.0000000000
      3131      1017  TIP3      H1              1.6326596015       11.3922342534      -38.4520846635  SOLV      1006            0.0000000000
      3132      1017  TIP3      H2              1.4998096015       10.2597042534      -39.4478646635  SOLV      1006            0.0000000000
      3133      1018  TIP3      OH2            -0.6435703985        3.3570542534      -39.6123846635  SOLV      1007            0.0000000000
      3134      1018  TIP3      H1             -0.6883103985        4.2963642534      -39.4336846635  SOLV      1007            0.0000000000
      3135      1018  TIP3      H2             -1.5312503985        3.1215442534      -39.8821746635  SOLV      1007            0.0000000000
      3136      1019  TIP3      OH2            12.6693896015       14.0209442534      -29.6764246635  SOLV      1008            0.0000000000
      3137      1019  TIP3      H1             12.5138196015       14.6993842534      -30.3334946635  SOLV      1008            0.0000000000
      3138      1019  TIP3      H2             13.6020296015       14.0928742534      -29.4733646635  SOLV      1008            0.0000000000
      3139      1020  TIP3      OH2             0.1646296015       -1.8612857466      -30.9392846635  SOLV      1009            0.0000000000
      3140      1020  TIP3      H1             -0.0643903985       -1.8020357466      -31.8667846635  SOLV      1009            0.0000000000
      3141      1020  TIP3      H2             -0.2780303985       -2.6527357466      -30.6328746635  SOLV      1009            0.0000000000
      3142      1021  TIP3      OH2            -0.9050403985       12.0794242534      -34.7787046635  SOLV      1010            0.0000000000
      3143      1021  TIP3      H1             -1.7371803985       12.5516942534      -34.7515646635  SOLV      1010            0.0000000000
      3144      1021  TIP3      H2             -0.3592103985       12.5891842534      -35.3773946635  SOLV      1010            0.0000000000
      3145      1022  TIP3      OH2            -1.6166703985       14.6917942534      -23.4489046635  SOLV      1011            0.0000000000
      3146      1022  TIP3      H1             -1.0764503985       14.4751942534      -22.6889846635  SOLV      1011            0.0000000000
      3147      1022  TIP3      H2             -2.0978703985       13.8863942534      -23.6386546635  SOLV      1011            0.0000000000
      3148      1023  TIP3      OH2             2.9806696015       13.6112342534      -21.8284846635  SOLV      1012            0.0000000000
      3149      1023  TIP3      H1              3.7483896015       13.1523142534      -21.4875646635  SOLV      1012            0.0000000000
      3150      1023  TIP3      H2              2.9592896015       13.3852142534      -22.7583646635  SOLV      1012            0.0000000000
      3151      1024  TIP3      OH2             9.5575396015       11.9913442534      -23.0993346635  SOLV      1013            0.0000000000
      3152      1024  TIP3      H1              9.2064896015       11.1346442534      -22.8562946635  SOLV      1013            0.0000000000
      3153      1024  TIP3      H2             10.2838596015       12.1340142534      -22.4924346635  SOLV      1013            0.0000000000
      3154      1025  TIP3      OH2            -1.7097203985        8.5022042534      -22.4944746635  SOLV      1014            0.0000000000
      3155      1025  TIP3      H1             -1.5656703985        7.6002742534      -22.7808046635  SOLV      1014            0.0000000000
      3156      1025  TIP3      H2             -2.4819803985        8.7884142534      -22.9822446635  SOLV      1014            0.0000000000
      3157      1026  TIP3      OH2             4.9458896015        8.4720142534      -23.0618346635  SOLV      1015            0.0000000000
      3158      1026  TIP3      H1              4.6172696015        8.7428242534      -23.9190946635  SOLV      1015            0.0000000000
      3159      1026  TIP3      H2              5.0977096015        7.5309942534      -23.1493346635  SOLV      1015            0.0000000000
      3160      1027  TIP3      OH2            10.6804096015        8.3877442534      -25.6786046635  SOLV      1016            0.0000000000
      3161      1027  TIP3      H1             11.4258896015        8.9761142534      -25.7982046635  SOLV      1016            0.0000000000
      3162      1027  TIP3      H2              9.9230896015        8.9697142534      -25.6152946635  SOLV      1016            0.0000000000
      3163      1028  TIP3      OH2            -0.8770703985        5.7025342534      -23.0745446635  SOLV      1017            0.0000000000
      3164      1028  TIP3      H1             -0.4689503985        4.8451942534      -23.1954846635  SOLV      1017            0.0000000000
      3165      1028  TIP3      H2             -1.1373103985        5.7166642534      -22.1535146635  SOLV      1017            0.0000000000
      3166      1029  TIP3      OH2             3.7810296015        6.8183942534      -38.0562146635  SOLV      1018            0.0000000000
      3167      1029  TIP3      H1              3.3212296015        6.3342242534      -37.3703646635  SOLV      1018            0.0000000000
      3168      1029  TIP3      H2              4.0358996015        6.1499342534      -38.6921646635  SOLV      1018            0.0000000000
      3169      1030  TIP3      OH2             3.0699596015        4.7111042534      -25.7002546635  SOLV      1019            0.0000000000
      3170      1030  TIP3      H1              2.4515696015        5.3857642534      -25.4197846635  SOLV      1019            0.0000000000
      3171      1030  TIP3      H2              3.4140796015        5.0324942534      -26.5336346635  SOLV      1019            0.0000000000
      3172      1031  TIP3      OH2             4.8520696015        5.0615742534      -39.7938946635  SOLV      1020            0.0000000000
      3173      1031  TIP3      H1              4.6715696015        4.9066942534      -40.7210646635  SOLV      1020            0.0000000000
      3174      1031  TIP3      H2              5.8021196015        5.1694442534      -39.7491046635  SOLV      1020            0.0000000000
      3175      1032  TIP3      OH2             8.0897796015        7.1826342534      -22.4227746635  SOLV      1021            0.0000000000
      3176      1032  TIP3      H1              9.0428996015        7.2665442534      -22.4501746635  SOLV      1021            0.0000000000
      3177      1032  TIP3      H2              7.9292396015        6.4708142534      -21.8032846635  SOLV      1021            0.0000000000
      3178      1033  TIP3      OH2             3.4093296015        2.0661842534      -24.6179446635  SOLV      1022            0.0000000000
      3179      1033  TIP3      H1              3.5594196015        1.3373142534      -25.2199746635  SOLV      1022            0.0000000000
      3180      1033  TIP3      H2              3.4115696015        2.8433542534      -25.1767246635  SOLV      1022            0.0000000000
      3181      1034  TIP3      OH2             3.8218996015        0.4357642534      -27.1252046635  SOLV      1023            0.0000000000
      3182      1034  TIP3      H1              4.3576496015        0.8874342534      -27.7772746635  SOLV      1023            0.0000000000
      3183      1034  TIP3      H2              2.9698596015        0.3277442534      -27.5477946635  SOLV      1023            0.0000000000
      3184      1035  TIP3      OH2             5.4037396015        5.8753842534      -26.8856846635  SOLV      1024            0.0000000000
      3185      1035  TIP3      H1              6.1542196015        5.7191342534      -27.4589046635  SOLV      1024            0.0000000000
      3186      1035  TIP3      H2              5.0645696015        6.7270442534      -27.1611346635  SOLV      1024            0.0000000000
      3187      1036  TIP3      OH2             9.8193596015        3.6905642534      -21.8571546635  SOLV      1025            0.0000000000
      3188      1036  TIP3      H1             10.0114896015        2.7595042534      -21.9687046635  SOLV      1025            0.0000000000
      3189      1036  TIP3      H2             10.6769896015        4.1155142534      -21.8676146635  SOLV      1025            0.0000000000
      3190      1037  TIP3      OH2            11.1360796015        6.4790842534      -23.7798846635  SOLV      1026            0.0000000000
      3191      1037  TIP3      H1             10.8545796015        7.1885442534      -24.3575046635  SOLV      1026            0.0000000000
      3192      1037  TIP3      H2             12.0785096015        6.4063842534      -23.9307646635  SOLV      1026            0.0000000000
      3193      1038  TIP3      OH2             1.8879596015        3.2645342534      -22.7063846635  SOLV      1027            0.0000000000
      3194      1038  TIP3      H1              1.1208596015        2.7320142534      -22.9166246635  SOLV      1027            0.0000000000
      3195      1038  TIP3      H2              2.5668596015        2.9545742534      -23.3057546635  SOLV      1027            0.0000000000
      3196      1039  TIP3      OH2             4.6274496015       -2.1076657466      -26.6938446635  SOLV      1028            0.0000000000
      3197      1039  TIP3      H1              4.5294096015       -1.1613457466      -26.7992246635  SOLV      1028            0.0000000000
      3198      1039  TIP3      H2              3.8850696015       -2.4802857466      -27.1694946635  SOLV      1028            0.0000000000
      3199      1040  TIP3      OH2             5.8914996015        2.2138742534      -23.1300046635  SOLV      1029            0.0000000000
      3200      1040  TIP3      H1              5.6560396015        1.9945442534      -22.2285146635  SOLV      1029            0.0000000000
      3201      1040  TIP3      H2              5.1081896015        2.0069942534      -23.6397546635  SOLV      1029            0.0000000000
      3202      1041  TIP3      OH2             8.6071596015        1.3412242534      -24.0546546635  SOLV      1030            0.0000000000
      3203      1041  TIP3      H1              7.6596996015        1.3731942534      -23.9223246635  SOLV      1030            0.0000000000
      3204      1041  TIP3      H2              8.9198296015        0.7159342534      -23.4008346635  SOLV      1030            0.0000000000
      3205      1042  TIP3      OH2            10.2413096015       -0.0246657466      -22.0494646635  SOLV      1031            0.0000000000
      3206      1042  TIP3      H1             10.1444896015       -0.9769357466      -22.0552746635  SOLV      1031            0.0000000000
      3207      1042  TIP3      H2              9.9196196015        0.2440142534      -21.1889146635  SOLV      1031            0.0000000000
      3208      1043  TIP3      OH2             0.0682396015        1.1849142534      -23.0019146635  SOLV      1032            0.0000000000
      3209      1043  TIP3      H1              0.2799796015        0.4785242534      -23.6121646635  SOLV      1032            0.0000000000
      3210      1043  TIP3      H2             -0.0430103985        0.7475142534      -22.1577946635  SOLV      1032            0.0000000000
      3211      1044  TIP3      OH2             4.8492596015       -2.8139257466      -24.0225646635  SOLV      1033            0.0000000000
      3212      1044  TIP3      H1              5.5610996015       -3.4537057466      -24.0366546635  SOLV      1033            0.0000000000
      3213      1044  TIP3      H2              4.7482996015       -2.5470957466      -24.9362546635  SOLV      1033            0.0000000000
      3214      1045  TIP3      OH2             5.2030096015       -1.1310857466      -21.9689346635  SOLV      1034            0.0000000000
      3215      1045  TIP3      H1              5.0712296015       -1.6067057466      -22.7890846635  SOLV      1034            0.0000000000
      3216      1045  TIP3      H2              4.6037496015       -0.3867257466      -22.0242246635  SOLV      1034            0.0000000000
      3217      1046  TIP3      OH2            -1.6822703985       10.3883242534      -39.3097246635  SOLV      1035            0.0000000000
      3218      1046  TIP3      H1             -0.7683503985       10.4672142534      -39.0363346635  SOLV      1035            0.0000000000
      3219      1046  TIP3      H2             -1.6749603985        9.7012842534      -39.9761646635  SOLV      1035            0.0000000000
      3220      1047  TIP3      OH2            -3.0332103985       15.7811742534      -34.2323346635  SOLV      1036            0.0000000000
      3221      1047  TIP3      H1             -3.6805003985       15.3193442534      -34.7652146635  SOLV      1036            0.0000000000
      3222      1047  TIP3      H2             -2.6787503985       15.1095042534      -33.6497146635  SOLV      1036            0.0000000000
      3223      1048  TIP3      OH2            -2.1632903985       13.8618742534      -32.4277146635  SOLV      1037            0.0000000000
      3224      1048  TIP3      H1             -2.4976103985       12.9816042534      -32.2556946635  SOLV      1037            0.0000000000
      3225      1048  TIP3      H2             -1.9410503985       14.2073742534      -31.5631546635  SOLV      1037            0.0000000000
      3226      1049  TIP3      OH2            15.3851896015       14.6715142534      -29.4472346635  SOLV      1038            0.0000000000
      3227      1049  TIP3      H1             15.3638596015       14.8563542534      -28.5082946635  SOLV      1038            0.0000000000
      3228      1049  TIP3      H2             16.0758096015       15.2399142534      -29.7880946635  SOLV      1038            0.0000000000
      3229      1050  TIP3      OH2            14.9484796015       14.2386242534      -26.5253246635  SOLV      1039            0.0000000000
      3230      1050  TIP3      H1             14.4613496015       13.5030342534      -26.8965846635  SOLV      1039            0.0000000000
      3231      1050  TIP3      H2             15.4977496015       13.8450142534      -25.8473846635  SOLV      1039            0.0000000000
      3232      1051  TIP3      OH2            13.3992096015       10.0284342534      -21.8872946635  SOLV      1040            0.0000000000
      3233      1051  TIP3      H1             12.5333196015        9.9234042534      -21.4930646635  SOLV      1040            0.0000000000
      3234      1051  TIP3      H2             13.7757996015       10.7867642534      -21.4408246635  SOLV      1040            0.0000000000
      3235      1052  TIP3      OH2            14.8538596015        9.1232942534      -29.6017146635  SOLV      1041            0.0000000000
      3236      1052  TIP3      H1             15.6872796015        8.7452942534      -29.8823546635  SOLV      1041            0.0000000000
      3237      1052  TIP3      H2             14.9658896015       10.0664142534      -29.7208046635  SOLV      1041            0.0000000000
      3238      1053  TIP3      OH2            13.3400896015       12.0010442534      -27.2948746635  SOLV      1042            0.0000000000
      3239      1053  TIP3      H1             12.6926196015       12.3261942534      -26.6693546635  SOLV      1042            0.0000000000
      3240      1053  TIP3      H2             12.8224896015       11.5608142534      -27.9690446635  SOLV      1042            0.0000000000
      3241      1054  TIP3      OH2            12.8814196015        4.8591942534      -33.9866046635  SOLV      1043            0.0000000000
      3242      1054  TIP3      H1             12.7312996015        3.9140542534      -34.0068246635  SOLV      1043            0.0000000000
      3243      1054  TIP3      H2             12.5278696015        5.1403342534      -33.1426946635  SOLV      1043            0.0000000000
      3244      1055  TIP3      OH2            -2.0833403985        6.9374142534      -29.9762246635  SOLV      1044            0.0000000000
      3245      1055  TIP3      H1             -1.8990503985        6.8555842534      -30.9119346635  SOLV      1044            0.0000000000
      3246      1055  TIP3      H2             -1.2340503985        6.8131142534      -29.5525846635  SOLV      1044            0.0000000000
      3247      1056  TIP3      OH2            13.7377096015        6.8295242534      -24.3477746635  SOLV      1045            0.0000000000
      3248      1056  TIP3      H1             14.3204396015        6.0947542534      -24.1560546635  SOLV      1045            0.0000000000
      3249      1056  TIP3      H2             14.3016396015        7.6015542534      -24.3011946635  SOLV      1045            0.0000000000
      3250      1057  TIP3      OH2            15.2344196015        4.7321042534      -23.6632346635  SOLV      1046            0.0000000000
      3251      1057  TIP3      H1             14.3710896015        4.3533142534      -23.8287646635  SOLV      1046            0.0000000000
      3252      1057  TIP3      H2             15.8387896015        3.9935842534      -23.7376546635  SOLV      1046            0.0000000000
      3253      1058  TIP3      OH2            12.5918996015        2.4417742534      -35.5240946635  SOLV      1047            0.0000000000
      3254      1058  TIP3      H1             12.8716096015        1.5348142534      -35.3999246635  SOLV      1047            0.0000000000
      3255      1058  TIP3      H2             13.3510696015        2.8759242534      -35.9131746635  SOLV      1047            0.0000000000
      3256      1059  TIP3      OH2            13.2037296015        3.0235142534      -30.0882046635  SOLV      1048            0.0000000000
      3257      1059  TIP3      H1             14.1365296015        3.2355042534      -30.1226046635  SOLV      1048            0.0000000000
      3258      1059  TIP3      H2             12.9684796015        3.1247242534      -29.1659046635  SOLV      1048            0.0000000000
      3259      1060  TIP3      OH2            13.2329196015        3.7600442534      -27.3122646635  SOLV      1049            0.0000000000
      3260      1060  TIP3      H1             12.3900496015        4.0280842534      -26.9462846635  SOLV      1049            0.0000000000
      3261      1060  TIP3      H2             13.6753496015        4.5822342534      -27.5231546635  SOLV      1049            0.0000000000
      3262      1061  TIP3      OH2            -2.4858603985        2.2079142534      -23.8353446635  SOLV      1050            0.0000000000
      3263      1061  TIP3      H1             -1.5663703985        2.0857442534      -23.5990346635  SOLV      1050            0.0000000000
      3264      1061  TIP3      H2             -2.9354103985        1.4578842534      -23.4459946635  SOLV      1050            0.0000000000
      3265      1062  TIP3      OH2            15.5160796015       -2.2599357466      -21.9587646635  SOLV      1051            0.0000000000
      3266      1062  TIP3      H1             15.8657796015       -2.9135857466      -22.5642946635  SOLV      1051            0.0000000000
      3267      1062  TIP3      H2             15.6630296015       -1.4225257466      -22.3985046635  SOLV      1051            0.0000000000
      3268      1063  TIP3      OH2            13.2053796015       -0.2952957466      -35.4758946635  SOLV      1052            0.0000000000
      3269      1063  TIP3      H1             13.3878796015       -0.7441457466      -34.6503946635  SOLV      1052            0.0000000000
      3270      1063  TIP3      H2             12.6056696015       -0.8798557466      -35.9394346635  SOLV      1052            0.0000000000
      3271      1064  TIP3      OH2            -1.2646103985        0.5200742534      -30.9440546635  SOLV      1053            0.0000000000
      3272      1064  TIP3      H1             -0.8194503985       -0.2716757466      -30.6420846635  SOLV      1053            0.0000000000
      3273      1064  TIP3      H2             -0.7983103985        1.2365942534      -30.5134946635  SOLV      1053            0.0000000000
      3274      1065  TIP3      OH2            -2.9605803985        3.5193742534      -29.8750346635  SOLV      1054            0.0000000000
      3275      1065  TIP3      H1             -2.4686003985        3.2984242534      -30.6658346635  SOLV      1054            0.0000000000
      3276      1065  TIP3      H2             -2.5984903985        4.3597142534      -29.5940846635  SOLV      1054            0.0000000000
      3277      1066  TIP3      OH2            15.0357996015       -0.1504757466      -23.6096346635  SOLV      1055            0.0000000000
      3278      1066  TIP3      H1             14.1183696015        0.1202342534      -23.6452846635  SOLV      1055            0.0000000000
      3279      1066  TIP3      H2             15.1587396015       -0.6856357466      -24.3936646635  SOLV      1055            0.0000000000
      3280      1067  TIP3      OH2            -2.6469303985       -0.2227157466      -35.8207946635  SOLV      1056            0.0000000000
      3281      1067  TIP3      H1             -3.5720903985       -0.0140557466      -35.9502446635  SOLV      1056            0.0000000000
      3282      1067  TIP3      H2             -2.1929403985        0.2613642534      -36.5105646635  SOLV      1056            0.0000000000
      3283      1068  TIP3      OH2            -2.6833903985       -1.4848157466      -27.4765446635  SOLV      1057            0.0000000000
      3284      1068  TIP3      H1             -3.3483403985       -1.7307857466      -26.8334546635  SOLV      1057            0.0000000000
      3285      1068  TIP3      H2             -3.1262603985       -0.8627757466      -28.0537446635  SOLV      1057            0.0000000000
      3286      1069  TIP3      OH2            -0.4914603985       11.6905942534      -23.3319646635  SOLV      1058            0.0000000000
      3287      1069  TIP3      H1             -1.3122103985       11.8652442534      -23.7924946635  SOLV      1058            0.0000000000
      3288      1069  TIP3      H2             -0.7436803985       11.6170642534      -22.4115246635  SOLV      1058            0.0000000000
      3289      1070  TIP3      OH2             2.4628296015       12.6647142534      -27.0735646635  SOLV      1059            0.0000000000
      3290      1070  TIP3      H1              2.0379396015       13.4745642534      -27.3561046635  SOLV      1059            0.0000000000
      3291      1070  TIP3      H2              3.3671096015       12.7501242534      -27.3755846635  SOLV      1059            0.0000000000
      3292      1071  TIP3      OH2             6.7739696015       14.0637142534      -24.1141946635  SOLV      1060            0.0000000000
      3293      1071  TIP3      H1              6.9587196015       13.7303242534      -23.2361646635  SOLV      1060            0.0000000000
      3294      1071  TIP3      H2              7.6204196015       14.3735742534      -24.4362746635  SOLV      1060            0.0000000000
      3295      1072  TIP3      OH2             9.1190096015       15.3496042534      -24.8700546635  SOLV      1061            0.0000000000
      3296      1072  TIP3      H1              9.7958996015       14.7168342534      -25.1101346635  SOLV      1061            0.0000000000
      3297      1072  TIP3      H2              9.4408896015       15.7506542534      -24.0627246635  SOLV      1061            0.0000000000
      3298      1073  TIP3      OH2            14.0363896015       -2.0608457466      -25.7905546635  SOLV      1062            0.0000000000
      3299      1073  TIP3      H1             13.2237396015       -1.7358157466      -26.1780846635  SOLV      1062            0.0000000000
      3300      1073  TIP3      H2             14.2692396015       -2.8209957466      -26.3236446635  SOLV      1062            0.0000000000
      3301      1074  TIP3      OH2            -0.1355003985       15.9211042534      -27.0260346635  SOLV      1063            0.0000000000
      3302      1074  TIP3      H1             -0.8558603985       16.3612042534      -27.4772646635  SOLV      1063            0.0000000000
      3303      1074  TIP3      H2             -0.5011003985       15.6705742534      -26.1776346635  SOLV      1063            0.0000000000
      3304      1075  TIP3      OH2             2.3317596015       15.5214942534      -27.9963146635  SOLV      1064            0.0000000000
      3305      1075  TIP3      H1              1.4669796015       15.5933442534      -27.5923046635  SOLV      1064            0.0000000000
      3306      1075  TIP3      H2              2.2766596015       16.0682242534      -28.7800646635  SOLV      1064            0.0000000000
      3307      1076  TIP3      OH2             7.0423196015       15.4093842534      -28.8207146635  SOLV      1065            0.0000000000
      3308      1076  TIP3      H1              6.5857196015       15.9383542534      -29.4748746635  SOLV      1065            0.0000000000
      3309      1076  TIP3      H2              7.2051196015       16.0125242534      -28.0954846635  SOLV      1065            0.0000000000
      3310      1077  TIP3      OH2             9.3699496015       14.2873442534      -27.8756846635  SOLV      1066            0.0000000000
      3311      1077  TIP3      H1              8.4653196015       14.4523642534      -28.1414746635  SOLV      1066            0.0000000000
      3312      1077  TIP3      H2              9.7988096015       15.1405642534      -27.9413446635  SOLV      1066            0.0000000000
      3313      1078  TIP3      OH2            11.9741396015       15.8572542534      -27.5809046635  SOLV      1067            0.0000000000
      3314      1078  TIP3      H1             11.7923396015       16.7731442534      -27.7914146635  SOLV      1067            0.0000000000
      3315      1078  TIP3      H2             12.1509196015       15.4469642534      -28.4274446635  SOLV      1067            0.0000000000
      3316      1079  TIP3      OH2            -0.7206903985       14.5443542534      -30.1158546635  SOLV      1068            0.0000000000
      3317      1079  TIP3      H1             -0.7390903985       14.1188642534      -29.2586246635  SOLV      1068            0.0000000000
      3318      1079  TIP3      H2              0.0840996015       14.2258542534      -30.5246346635  SOLV      1068            0.0000000000
      3319      1080  TIP3      OH2             1.4206196015       13.2542242534      -31.4608646635  SOLV      1069            0.0000000000
      3320      1080  TIP3      H1              1.2016896015       12.3379642534      -31.2912646635  SOLV      1069            0.0000000000
      3321      1080  TIP3      H2              2.2448396015       13.3942642534      -30.9947246635  SOLV      1069            0.0000000000
      3322      1081  TIP3      OH2             3.9578696015       13.7241542534      -30.6120646635  SOLV      1070            0.0000000000
      3323      1081  TIP3      H1              4.1704396015       12.8360542534      -30.8989746635  SOLV      1070            0.0000000000
      3324      1081  TIP3      H2              4.0223796015       13.6899242534      -29.6576646635  SOLV      1070            0.0000000000
      3325      1082  TIP3      OH2             7.4662396015       -0.6117857466      -31.4677346635  SOLV      1071            0.0000000000
      3326      1082  TIP3      H1              6.7919196015       -1.2412257466      -31.2121546635  SOLV      1071            0.0000000000
      3327      1082  TIP3      H2              8.0301596015       -1.0958957466      -32.0709446635  SOLV      1071            0.0000000000
      3328      1083  TIP3      OH2            12.6089596015       -2.5043857466      -31.3550246635  SOLV      1072            0.0000000000
      3329      1083  TIP3      H1             13.2127196015       -1.9568457466      -31.8569246635  SOLV      1072            0.0000000000
      3330      1083  TIP3      H2             11.7391596015       -2.1853457466      -31.5956146635  SOLV      1072            0.0000000000
      3331      1084  TIP3      OH2            14.3359996015       -1.3655157466      -33.0219346635  SOLV      1073            0.0000000000
      3332      1084  TIP3      H1             14.9477496015       -1.8799457466      -33.5485746635  SOLV      1073            0.0000000000
      3333      1084  TIP3      H2             14.7183396015       -0.4883057466      -32.9984946635  SOLV      1073            0.0000000000
      3334      1085  TIP3      OH2            -0.2070103985       -1.9777557466      -33.6457446635  SOLV      1074            0.0000000000
      3335      1085  TIP3      H1             -0.9840303985       -2.2122657466      -34.1531546635  SOLV      1074            0.0000000000
      3336      1085  TIP3      H2              0.3233496015       -2.7745457466      -33.6369446635  SOLV      1074            0.0000000000
      3337      1086  TIP3      OH2            -1.3706703985       -2.1799457466      -37.8421346635  SOLV      1075            0.0000000000
      3338      1086  TIP3      H1             -0.9316003985       -1.5688957466      -38.4337846635  SOLV      1075            0.0000000000
      3339      1086  TIP3      H2             -2.0044303985       -1.6415357466      -37.3681346635  SOLV      1075            0.0000000000
      3340      1087  TIP3      OH2             4.3722496015       -2.0510457466      -33.8324346635  SOLV      1076            0.0000000000
      3341      1087  TIP3      H1              5.2465896015       -1.6626157466      -33.8620046635  SOLV      1076            0.0000000000
      3342      1087  TIP3      H2              4.2363296015       -2.2662657466      -32.9097146635  SOLV      1076            0.0000000000
      3343      1088  TIP3      OH2             9.9290896015       -2.0210657466      -32.1832646635  SOLV      1077            0.0000000000
      3344      1088  TIP3      H1             10.0052496015       -1.9259057466      -33.1326646635  SOLV      1077            0.0000000000
      3345      1088  TIP3      H2              9.6540096015       -2.9287757466      -32.0543546635  SOLV      1077            0.0000000000
      3346      1089  TIP3      OH2            11.2823496015       -1.9952857466      -36.4907646635  SOLV      1078            0.0000000000
      3347      1089  TIP3      H1             10.5794596015       -1.3803657466      -36.7006246635  SOLV      1078            0.0000000000
      3348      1089  TIP3      H2             10.8374896015       -2.8326157466      -36.3596746635  SOLV      1078            0.0000000000
      3349      1090  TIP3      OH2            -1.4697203985       13.7682742534      -36.9446246635  SOLV      1079            0.0000000000
      3350      1090  TIP3      H1             -2.1547303985       13.7301642534      -37.6121146635  SOLV      1079            0.0000000000
      3351      1090  TIP3      H2             -1.4660003985       14.6810342534      -36.6564146635  SOLV      1079            0.0000000000
      3352      1091  TIP3      OH2             0.4902396015       -0.2637957466      -39.3997246635  SOLV      1080            0.0000000000
      3353      1091  TIP3      H1              0.9815796015       -0.8935557466      -39.9271746635  SOLV      1080            0.0000000000
      3354      1091  TIP3      H2              1.1138696015        0.0321442534      -38.7366046635  SOLV      1080            0.0000000000
      3355      1092  TIP3      OH2             5.5162496015        0.0293542534      -36.9426746635  SOLV      1081            0.0000000000
      3356      1092  TIP3      H1              5.6943796015       -0.6173257466      -36.2598146635  SOLV      1081            0.0000000000
      3357      1092  TIP3      H2              5.4628696015        0.8631242534      -36.4755646635  SOLV      1081            0.0000000000
      3358      1093  TIP3      OH2            -0.2492103985       -1.4635657466      -24.1281246635  SOLV      1082            0.0000000000
      3359      1093  TIP3      H1             -0.6153903985       -2.2293057466      -23.6856546635  SOLV      1082            0.0000000000
      3360      1093  TIP3      H2              0.6636396015       -1.4345457466      -23.8416146635  SOLV      1082            0.0000000000
      3361      1094  TIP3      OH2             1.7238696015       -2.1131257466      -22.5924146635  SOLV      1083            0.0000000000
      3362      1094  TIP3      H1              2.6222296015       -2.3871057466      -22.7770746635  SOLV      1083            0.0000000000
      3363      1094  TIP3      H2              1.3371796015       -2.8555257466      -22.1281546635  SOLV      1083            0.0000000000
      3364      1095  TIP3      OH2            10.1450996015       -2.7805957466      -22.4101346635  SOLV      1084            0.0000000000
      3365      1095  TIP3      H1             10.2218196015       -3.2065257466      -21.5563646635  SOLV      1084            0.0000000000
      3366      1095  TIP3      H2             11.0387596015       -2.7671257466      -22.7527846635  SOLV      1084            0.0000000000
      3367      1096  TIP3      OH2            13.3212096015       13.2920342534      -23.7177146635  SOLV      1085            0.0000000000
      3368      1096  TIP3      H1             12.5393996015       13.1058342534      -24.2376546635  SOLV      1085            0.0000000000
      3369      1096  TIP3      H2             13.2491996015       14.2214642534      -23.5004646635  SOLV      1085            0.0000000000
      3370      1097  TIP3      OH2            19.0288796015        6.0477542534      -28.6751846635  SOLV      1086            0.0000000000
      3371      1097  TIP3      H1             19.0700896015        5.4220842534      -27.9519446635  SOLV      1086            0.0000000000
      3372      1097  TIP3      H2             19.7316496015        6.6716142534      -28.4931446635  SOLV      1086            0.0000000000
      3373      1098  TIP3      OH2            17.2728496015        6.3198642534      -32.6215946635  SOLV      1087            0.0000000000
      3374      1098  TIP3      H1             17.4861996015        5.5500242534      -32.0942946635  SOLV      1087            0.0000000000
      3375      1098  TIP3      H2             18.0106096015        6.4095342534      -33.2248346635  SOLV      1087            0.0000000000
      3376      1099  TIP3      OH2            17.9654996015        3.7581442534      -31.4999746635  SOLV      1088            0.0000000000
      3377      1099  TIP3      H1             18.6191596015        3.2083142534      -31.0679646635  SOLV      1088            0.0000000000
      3378      1099  TIP3      H2             17.9894296015        3.4840442534      -32.4167746635  SOLV      1088            0.0000000000
      3379      1100  TIP3      OH2            20.1555396015        0.2794042534      -28.1880346635  SOLV      1089            0.0000000000
      3380      1100  TIP3      H1             19.9367096015        0.8094642534      -28.9544346635  SOLV      1089            0.0000000000
      3381      1100  TIP3      H2             19.4876296015        0.5059542534      -27.5408946635  SOLV      1089            0.0000000000
      3382      1101  TIP3      OH2            22.7246796015        7.9549742534      -27.9006646635  SOLV      1090            0.0000000000
      3383      1101  TIP3      H1             21.9845896015        8.5531242534      -27.7971446635  SOLV      1090            0.0000000000
      3384      1101  TIP3      H2             23.4386296015        8.5089342534      -28.2163046635  SOLV      1090            0.0000000000
      3385      1102  TIP3      OH2            19.7492696015        2.1715842534      -30.2358146635  SOLV      1091            0.0000000000
      3386      1102  TIP3      H1             20.3628996015        2.8043442534      -29.8625746635  SOLV      1091            0.0000000000
      3387      1102  TIP3      H2             20.2613396015        1.6990842534      -30.8921246635  SOLV      1091            0.0000000000
      3388      1103  TIP3      OH2            21.1321096015        9.9192742534      -27.1135146635  SOLV      1092            0.0000000000
      3389      1103  TIP3      H1             21.1268696015       10.7986242534      -27.4915846635  SOLV      1092            0.0000000000
      3390      1103  TIP3      H2             20.2785196015        9.8356842534      -26.6885246635  SOLV      1092            0.0000000000
      3391      1104  TIP3      OH2            24.1820096015       -2.4150857466      -30.7355446635  SOLV      1093            0.0000000000
      3392      1104  TIP3      H1             24.0644296015       -3.3634857466      -30.7897146635  SOLV      1093            0.0000000000
      3393      1104  TIP3      H2             23.3270196015       -2.0824757466      -30.4624346635  SOLV      1093            0.0000000000
      3394      1105  TIP3      OH2            21.8661896015        6.0309842534      -29.7673746635  SOLV      1094            0.0000000000
      3395      1105  TIP3      H1             22.4314396015        6.1524042534      -30.5302546635  SOLV      1094            0.0000000000
      3396      1105  TIP3      H2             22.1850796015        6.6684842534      -29.1285246635  SOLV      1094            0.0000000000
      3397      1106  TIP3      OH2            22.7462596015       10.4302542534      -25.0501846635  SOLV      1095            0.0000000000
      3398      1106  TIP3      H1             22.4350096015       11.2125742534      -24.5948646635  SOLV      1095            0.0000000000
      3399      1106  TIP3      H2             22.0962796015       10.2771642534      -25.7359846635  SOLV      1095            0.0000000000
      3400      1107  TIP3      OH2            19.6662496015        6.6283642534      -25.8216146635  SOLV      1096            0.0000000000
      3401      1107  TIP3      H1             19.7365696015        7.2790442534      -25.1231146635  SOLV      1096            0.0000000000
      3402      1107  TIP3      H2             18.7754696015        6.7311142534      -26.1565246635  SOLV      1096            0.0000000000
      3403      1108  TIP3      OH2            20.9858496015       12.5017542534      -24.2868046635  SOLV      1097            0.0000000000
      3404      1108  TIP3      H1             20.9933796015       12.3657242534      -25.2342546635  SOLV      1097            0.0000000000
      3405      1108  TIP3      H2             20.0698896015       12.3845642534      -24.0348046635  SOLV      1097            0.0000000000
      3406      1109  TIP3      OH2            16.5829196015        8.6947742534      -26.9966146635  SOLV      1098            0.0000000000
      3407      1109  TIP3      H1             16.0817596015        8.6667142534      -27.8116446635  SOLV      1098            0.0000000000
      3408      1109  TIP3      H2             16.5882896015        7.7890942534      -26.6868846635  SOLV      1098            0.0000000000
      3409      1110  TIP3      OH2            16.3331896015       11.4751542534      -30.1125946635  SOLV      1099            0.0000000000
      3410      1110  TIP3      H1             17.2792496015       11.3308542534      -30.1316446635  SOLV      1099            0.0000000000
      3411      1110  TIP3      H2             16.2208196015       12.2594342534      -29.5754746635  SOLV      1099            0.0000000000
      3412      1111  TIP3      OH2            25.5094396015       11.7150442534      -25.5540846635  SOLV      1100            0.0000000000
      3413      1111  TIP3      H1             25.5968996015       12.5415042534      -25.0791746635  SOLV      1100            0.0000000000
      3414      1111  TIP3      H2             24.6459496015       11.3854242534      -25.3051546635  SOLV      1100            0.0000000000
      3415      1112  TIP3      OH2            31.6830196015        3.6343742534      -23.9500046635  SOLV      1101            0.0000000000
      3416      1112  TIP3      H1             31.2756996015        4.1149342534      -24.6706746635  SOLV      1101            0.0000000000
      3417      1112  TIP3      H2             31.7235896015        2.7289742534      -24.2579246635  SOLV      1101            0.0000000000
      3418      1113  TIP3      OH2            18.8319696015       10.0183142534      -25.9533346635  SOLV      1102            0.0000000000
      3419      1113  TIP3      H1             19.0480996015        9.6568742534      -25.0937546635  SOLV      1102            0.0000000000
      3420      1113  TIP3      H2             17.9764396015        9.6436942534      -26.1629846635  SOLV      1102            0.0000000000
      3421      1114  TIP3      OH2            21.4507696015       -1.5116357466      -29.9579146635  SOLV      1103            0.0000000000
      3422      1114  TIP3      H1             20.5891396015       -1.5988157466      -30.3656246635  SOLV      1103            0.0000000000
      3423      1114  TIP3      H2             21.4283396015       -0.6556257466      -29.5301546635  SOLV      1103            0.0000000000
      3424      1115  TIP3      OH2            26.1135496015       -1.7895957466      -26.5832146635  SOLV      1104            0.0000000000
      3425      1115  TIP3      H1             26.5338596015       -2.2048857466      -25.8301546635  SOLV      1104            0.0000000000
      3426      1115  TIP3      H2             25.1805096015       -1.9682657466      -26.4660146635  SOLV      1104            0.0000000000
      3427      1116  TIP3      OH2            29.4400396015        1.9659242534      -25.7297646635  SOLV      1105            0.0000000000
      3428      1116  TIP3      H1             28.9259896015        1.8401442534      -24.9321646635  SOLV      1105            0.0000000000
      3429      1116  TIP3      H2             29.2845096015        2.8782342534      -25.9741446635  SOLV      1105            0.0000000000
      3430      1117  TIP3      OH2            21.5417796015        3.4538142534      -28.8628946635  SOLV      1106            0.0000000000
      3431      1117  TIP3      H1             20.8999896015        3.4135442534      -28.1538846635  SOLV      1106            0.0000000000
      3432      1117  TIP3      H2             21.5789796015        4.3802842534      -29.1005946635  SOLV      1106            0.0000000000
      3433      1118  TIP3      OH2            26.1763996015        4.2664942534      -23.6457446635  SOLV      1107            0.0000000000
      3434      1118  TIP3      H1             25.6137796015        3.5616542534      -23.3249646635  SOLV      1107            0.0000000000
      3435      1118  TIP3      H2             27.0027396015        4.1456842534      -23.1779846635  SOLV      1107            0.0000000000
      3436      1119  TIP3      OH2            19.2918296015        3.7741642534      -26.9956946635  SOLV      1108            0.0000000000
      3437      1119  TIP3      H1             19.2537696015        4.1743242534      -26.1269846635  SOLV      1108            0.0000000000
      3438      1119  TIP3      H2             18.8009396015        2.9574042534      -26.9054046635  SOLV      1108            0.0000000000
      3439      1120  TIP3      OH2            15.8999096015        0.8903442534      -33.1452246635  SOLV      1109            0.0000000000
      3440      1120  TIP3      H1             16.5306796015        0.8615542534      -32.4258346635  SOLV      1109            0.0000000000
      3441      1120  TIP3      H2             16.3493396015        0.4652142534      -33.8756346635  SOLV      1109            0.0000000000
      3442      1121  TIP3      OH2            19.4108996015        8.4828742534      -23.7154946635  SOLV      1110            0.0000000000
      3443      1121  TIP3      H1             20.1431396015        8.7374642534      -23.1540446635  SOLV      1110            0.0000000000
      3444      1121  TIP3      H2             18.6307696015        8.6874142534      -23.1999546635  SOLV      1110            0.0000000000
      3445      1122  TIP3      OH2            24.0667796015        2.2784842534      -28.5634846635  SOLV      1111            0.0000000000
      3446      1122  TIP3      H1             23.2313096015        2.7324342534      -28.4532446635  SOLV      1111            0.0000000000
      3447      1122  TIP3      H2             24.5908396015        2.5543342534      -27.8114946635  SOLV      1111            0.0000000000
      3448      1123  TIP3      OH2            26.1302496015        8.6755842534      -25.6419346635  SOLV      1112            0.0000000000
      3449      1123  TIP3      H1             25.7848596015        8.2938242534      -24.8349746635  SOLV      1112            0.0000000000
      3450      1123  TIP3      H2             25.9302596015        9.6089442534      -25.5706446635  SOLV      1112            0.0000000000
      3451      1124  TIP3      OH2            16.7438396015        6.2469442534      -25.7942046635  SOLV      1113            0.0000000000
      3452      1124  TIP3      H1             16.9666996015        5.8289042534      -24.9624546635  SOLV      1113            0.0000000000
      3453      1124  TIP3      H2             16.1418496015        5.6344442534      -26.2169246635  SOLV      1113            0.0000000000
      3454      1125  TIP3      OH2            23.7603296015        5.7639342534      -23.5812346635  SOLV      1114            0.0000000000
      3455      1125  TIP3      H1             23.4644096015        5.5982342534      -24.4763246635  SOLV      1114            0.0000000000
      3456      1125  TIP3      H2             24.6918496015        5.5439642534      -23.5918446635  SOLV      1114            0.0000000000
      3457      1126  TIP3      OH2            18.3777896015        1.0002142534      -26.2360646635  SOLV      1115            0.0000000000
      3458      1126  TIP3      H1             17.4850196015        1.3387542534      -26.3036646635  SOLV      1115            0.0000000000
      3459      1126  TIP3      H2             18.2790696015        0.1448242534      -25.8179846635  SOLV      1115            0.0000000000
      3460      1127  TIP3      OH2            18.0289896015       12.8046542534      -27.8011246635  SOLV      1116            0.0000000000
      3461      1127  TIP3      H1             18.2460196015       11.8728942534      -27.8321546635  SOLV      1116            0.0000000000
      3462      1127  TIP3      H2             18.2753396015       13.0791542534      -26.9178446635  SOLV      1116            0.0000000000
      3463      1128  TIP3      OH2            27.1121296015        0.7412442534      -27.3462046635  SOLV      1117            0.0000000000
      3464      1128  TIP3      H1             27.8109196015        0.8151142534      -26.6962346635  SOLV      1117            0.0000000000
      3465      1128  TIP3      H2             26.7312696015       -0.1232557466      -27.1919146635  SOLV      1117            0.0000000000
      3466      1129  TIP3      OH2            25.6322496015        3.1075642534      -26.2294746635  SOLV      1118            0.0000000000
      3467      1129  TIP3      H1             25.7512796015        3.6811042534      -25.4724346635  SOLV      1118            0.0000000000
      3468      1129  TIP3      H2             26.2877096015        2.4195042534      -26.1146946635  SOLV      1118            0.0000000000
      3469      1130  TIP3      OH2            31.8368296015        1.0145942534      -25.3945046635  SOLV      1119            0.0000000000
      3470      1130  TIP3      H1             30.9204096015        1.2767642534      -25.4821346635  SOLV      1119            0.0000000000
      3471      1130  TIP3      H2             32.1723296015        1.0114942534      -26.2909746635  SOLV      1119            0.0000000000
      3472      1131  TIP3      OH2            19.0206296015       -1.8612857466      -30.9392846635  SOLV      1120            0.0000000000
      3473      1131  TIP3      H1             18.7916096015       -1.8020357466      -31.8667846635  SOLV      1120            0.0000000000
      3474      1131  TIP3      H2             18.5779696015       -2.6527357466      -30.6328746635  SOLV      1120            0.0000000000
      3475      1132  TIP3      OH2            17.2393296015       14.6917942534      -23.4489046635  SOLV      1121            0.0000000000
      3476      1132  TIP3      H1             17.7795496015       14.4751942534      -22.6889846635  SOLV      1121            0.0000000000
      3477      1132  TIP3      H2             16.7581296015       13.8863942534      -23.6386546635  SOLV      1121            0.0000000000
      3478      1133  TIP3      OH2            21.8366696015       13.6112342534      -21.8284846635  SOLV      1122            0.0000000000
      3479      1133  TIP3      H1             22.6043896015       13.1523142534      -21.4875646635  SOLV      1122            0.0000000000
      3480      1133  TIP3      H2             21.8152896015       13.3852142534      -22.7583646635  SOLV      1122            0.0000000000
      3481      1134  TIP3      OH2            28.4135396015       11.9913442534      -23.0993346635  SOLV      1123            0.0000000000
      3482      1134  TIP3      H1             28.0624896015       11.1346442534      -22.8562946635  SOLV      1123            0.0000000000
      3483      1134  TIP3      H2             29.1398596015       12.1340142534      -22.4924346635  SOLV      1123            0.0000000000
      3484      1135  TIP3      OH2            17.1462796015        8.5022042534      -22.4944746635  SOLV      1124            0.0000000000
      3485      1135  TIP3      H1             17.2903296015        7.6002742534      -22.7808046635  SOLV      1124            0.0000000000
      3486      1135  TIP3      H2             16.3740196015        8.7884142534      -22.9822446635  SOLV      1124            0.0000000000
      3487      1136  TIP3      OH2            23.8018896015        8.4720142534      -23.0618346635  SOLV      1125            0.0000000000
      3488      1136  TIP3      H1             23.4732696015        8.7428242534      -23.9190946635  SOLV      1125            0.0000000000
      3489      1136  TIP3      H2             23.9537096015        7.5309942534      -23.1493346635  SOLV      1125            0.0000000000
      3490      1137  TIP3      OH2            17.9789296015        5.7025342534      -23.0745446635  SOLV      1126            0.0000000000
      3491      1137  TIP3      H1             18.3870496015        4.8451942534      -23.1954846635  SOLV      1126            0.0000000000
      3492      1137  TIP3      H2             17.7186896015        5.7166642534      -22.1535146635  SOLV      1126            0.0000000000
      3493      1138  TIP3      OH2            21.9259596015        4.7111042534      -25.7002546635  SOLV      1127            0.0000000000
      3494      1138  TIP3      H1             21.3075696015        5.3857642534      -25.4197846635  SOLV      1127            0.0000000000
      3495      1138  TIP3      H2             22.2700796015        5.0324942534      -26.5336346635  SOLV      1127            0.0000000000
      3496      1139  TIP3      OH2            26.9457796015        7.1826342534      -22.4227746635  SOLV      1128            0.0000000000
      3497      1139  TIP3      H1             27.8988996015        7.2665442534      -22.4501746635  SOLV      1128            0.0000000000
      3498      1139  TIP3      H2             26.7852396015        6.4708142534      -21.8032846635  SOLV      1128            0.0000000000
      3499      1140  TIP3      OH2            22.2653296015        2.0661842534      -24.6179446635  SOLV      1129            0.0000000000
      3500      1140  TIP3      H1             22.4154196015        1.3373142534      -25.2199746635  SOLV      1129            0.0000000000
      3501      1140  TIP3      H2             22.2675696015        2.8433542534      -25.1767246635  SOLV      1129            0.0000000000
      3502      1141  TIP3      OH2            22.6778996015        0.4357642534      -27.1252046635  SOLV      1130            0.0000000000
      3503      1141  TIP3      H1             23.2136496015        0.8874342534      -27.7772746635  SOLV      1130            0.0000000000
      3504      1141  TIP3      H2             21.8258596015        0.3277442534      -27.5477946635  SOLV      1130            0.0000000000
      3505      1142  TIP3      OH2            24.2597396015        5.8753842534      -26.8856846635  SOLV      1131            0.0000000000
      3506      1142  TIP3      H1             25.0102196015        5.7191342534      -27.4589046635  SOLV      1131            0.0000000000
      3507      1142  TIP3      H2             23.9205696015        6.7270442534      -27.1611346635  SOLV      1131            0.0000000000
      3508      1143  TIP3      OH2            28.6753596015        3.6905642534      -21.8571546635  SOLV      1132            0.0000000000
      3509      1143  TIP3      H1             28.8674896015        2.7595042534      -21.9687046635  SOLV      1132            0.0000000000
      3510      1143  TIP3      H2             29.5329896015        4.1155142534      -21.8676146635  SOLV      1132            0.0000000000
      3511      1144  TIP3      OH2            29.9920796015        6.4790842534      -23.7798846635  SOLV      1133            0.0000000000
      3512      1144  TIP3      H1             29.7105796015        7.1885442534      -24.3575046635  SOLV      1133            0.0000000000
      3513      1144  TIP3      H2             30.9345096015        6.4063842534      -23.9307646635  SOLV      1133            0.0000000000
      3514      1145  TIP3      OH2            20.7439596015        3.2645342534      -22.7063846635  SOLV      1134            0.0000000000
      3515      1145  TIP3      H1             19.9768596015        2.7320142534      -22.9166246635  SOLV      1134            0.0000000000
      3516      1145  TIP3      H2             21.4228596015        2.9545742534      -23.3057546635  SOLV      1134            0.0000000000
      3517      1146  TIP3      OH2            23.4834496015       -2.1076657466      -26.6938446635  SOLV      1135            0.0000000000
      3518      1146  TIP3      H1             23.3854096015       -1.1613457466      -26.7992246635  SOLV      1135            0.0000000000
      3519      1146  TIP3      H2             22.7410696015       -2.4802857466      -27.1694946635  SOLV      1135            0.0000000000
      3520      1147  TIP3      OH2            24.7474996015        2.2138742534      -23.1300046635  SOLV      1136            0.0000000000
      3521      1147  TIP3      H1             24.5120396015        1.9945442534      -22.2285146635  SOLV      1136            0.0000000000
      3522      1147  TIP3      H2             23.9641896015        2.0069942534      -23.6397546635  SOLV      1136            0.0000000000
      3523      1148  TIP3      OH2            27.4631596015        1.3412242534      -24.0546546635  SOLV      1137            0.0000000000
      3524      1148  TIP3      H1             26.5156996015        1.3731942534      -23.9223246635  SOLV      1137            0.0000000000
      3525      1148  TIP3      H2             27.7758296015        0.7159342534      -23.4008346635  SOLV      1137            0.0000000000
      3526      1149  TIP3      OH2            29.0973096015       -0.0246657466      -22.0494646635  SOLV      1138            0.0000000000
      3527      1149  TIP3      H1             29.0004896015       -0.9769357466      -22.0552746635  SOLV      1138            0.0000000000
      3528      1149  TIP3      H2             28.7756196015        0.2440142534      -21.1889146635  SOLV      1138            0.0000000000
      3529      1150  TIP3      OH2            18.9242396015        1.1849142534      -23.0019146635  SOLV      1139            0.0000000000
      3530      1150  TIP3      H1             19.1359796015        0.4785242534      -23.6121646635  SOLV      1139            0.0000000000
      3531      1150  TIP3      H2             18.8129896015        0.7475142534      -22.1577946635  SOLV      1139            0.0000000000
      3532      1151  TIP3      OH2            23.7052596015       -2.8139257466      -24.0225646635  SOLV      1140            0.0000000000
      3533      1151  TIP3      H1             24.4170996015       -3.4537057466      -24.0366546635  SOLV      1140            0.0000000000
      3534      1151  TIP3      H2             23.6042996015       -2.5470957466      -24.9362546635  SOLV      1140            0.0000000000
      3535      1152  TIP3      OH2            24.0590096015       -1.1310857466      -21.9689346635  SOLV      1141            0.0000000000
      3536      1152  TIP3      H1             23.9272296015       -1.6067057466      -22.7890846635  SOLV      1141            0.0000000000
      3537      1152  TIP3      H2             23.4597496015       -0.3867257466      -22.0242246635  SOLV      1141            0.0000000000
      3538      1153  TIP3      OH2            32.2552096015       10.0284342534      -21.8872946635  SOLV      1142            0.0000000000
      3539      1153  TIP3      H1             31.3893196015        9.9234042534      -21.4930646635  SOLV      1142            0.0000000000
      3540      1153  TIP3      H2             32.6317996015       10.7867642534      -21.4408246635  SOLV      1142            0.0000000000
      3541      1154  TIP3      OH2            16.7726596015        6.9374142534      -29.9762246635  SOLV      1143            0.0000000000
      3542      1154  TIP3      H1             16.9569496015        6.8555842534      -30.9119346635  SOLV      1143            0.0000000000
      3543      1154  TIP3      H2             17.6219496015        6.8131142534      -29.5525846635  SOLV      1143            0.0000000000
      3544      1155  TIP3      OH2            34.0904196015        4.7321042534      -23.6632346635  SOLV      1144            0.0000000000
      3545      1155  TIP3      H1             33.2270896015        4.3533142534      -23.8287646635  SOLV      1144            0.0000000000
      3546      1155  TIP3      H2             34.6947896015        3.9935842534      -23.7376546635  SOLV      1144            0.0000000000
      3547      1156  TIP3      OH2            16.3701396015        2.2079142534      -23.8353446635  SOLV      1145            0.0000000000
      3548      1156  TIP3      H1             17.2896296015        2.0857442534      -23.5990346635  SOLV      1145            0.0000000000
      3549      1156  TIP3      H2             15.9205896015        1.4578842534      -23.4459946635  SOLV      1145            0.0000000000
      3550      1157  TIP3      OH2            34.3720796015       -2.2599357466      -21.9587646635  SOLV      1146            0.0000000000
      3551      1157  TIP3      H1             34.7217796015       -2.9135857466      -22.5642946635  SOLV      1146            0.0000000000
      3552      1157  TIP3      H2             34.5190296015       -1.4225257466      -22.3985046635  SOLV      1146            0.0000000000
      3553      1158  TIP3      OH2            17.5913896015        0.5200742534      -30.9440546635  SOLV      1147            0.0000000000
      3554      1158  TIP3      H1             18.0365496015       -0.2716757466      -30.6420846635  SOLV      1147            0.0000000000
      3555      1158  TIP3      H2             18.0576896015        1.2365942534      -30.5134946635  SOLV      1147            0.0000000000
      3556      1159  TIP3      OH2            15.8954196015        3.5193742534      -29.8750346635  SOLV      1148            0.0000000000
      3557      1159  TIP3      H1             16.3873996015        3.2984242534      -30.6658346635  SOLV      1148            0.0000000000
      3558      1159  TIP3      H2             16.2575096015        4.3597142534      -29.5940846635  SOLV      1148            0.0000000000
      3559      1160  TIP3      OH2            33.8917996015       -0.1504757466      -23.6096346635  SOLV      1149            0.0000000000
      3560      1160  TIP3      H1             32.9743696015        0.1202342534      -23.6452846635  SOLV      1149            0.0000000000
      3561      1160  TIP3      H2             34.0147396015       -0.6856357466      -24.3936646635  SOLV      1149            0.0000000000
      3562      1161  TIP3      OH2            16.1726096015       -1.4848157466      -27.4765446635  SOLV      1150            0.0000000000
      3563      1161  TIP3      H1             15.5076596015       -1.7307857466      -26.8334546635  SOLV      1150            0.0000000000
      3564      1161  TIP3      H2             15.7297396015       -0.8627757466      -28.0537446635  SOLV      1150            0.0000000000
      3565      1162  TIP3      OH2            18.3645396015       11.6905942534      -23.3319646635  SOLV      1151            0.0000000000
      3566      1162  TIP3      H1             17.5437896015       11.8652442534      -23.7924946635  SOLV      1151            0.0000000000
      3567      1162  TIP3      H2             18.1123196015       11.6170642534      -22.4115246635  SOLV      1151            0.0000000000
      3568      1163  TIP3      OH2            21.3188296015       12.6647142534      -27.0735646635  SOLV      1152            0.0000000000
      3569      1163  TIP3      H1             20.8939396015       13.4745642534      -27.3561046635  SOLV      1152            0.0000000000
      3570      1163  TIP3      H2             22.2231096015       12.7501242534      -27.3755846635  SOLV      1152            0.0000000000
      3571      1164  TIP3      OH2            25.6299696015       14.0637142534      -24.1141946635  SOLV      1153            0.0000000000
      3572      1164  TIP3      H1             25.8147196015       13.7303242534      -23.2361646635  SOLV      1153            0.0000000000
      3573      1164  TIP3      H2             26.4764196015       14.3735742534      -24.4362746635  SOLV      1153            0.0000000000
      3574      1165  TIP3      OH2            32.8923896015       -2.0608457466      -25.7905546635  SOLV      1154            0.0000000000
      3575      1165  TIP3      H1             32.0797396015       -1.7358157466      -26.1780846635  SOLV      1154            0.0000000000
      3576      1165  TIP3      H2             33.1252396015       -2.8209957466      -26.3236446635  SOLV      1154            0.0000000000
      3577      1166  TIP3      OH2            18.7204996015       15.9211042534      -27.0260346635  SOLV      1155            0.0000000000
      3578      1166  TIP3      H1             18.0001396015       16.3612042534      -27.4772646635  SOLV      1155            0.0000000000
      3579      1166  TIP3      H2             18.3548996015       15.6705742534      -26.1776346635  SOLV      1155            0.0000000000
      3580      1167  TIP3      OH2            18.6489896015       -1.9777557466      -33.6457446635  SOLV      1156            0.0000000000
      3581      1167  TIP3      H1             17.8719696015       -2.2122657466      -34.1531546635  SOLV      1156            0.0000000000
      3582      1167  TIP3      H2             19.1793496015       -2.7745457466      -33.6369446635  SOLV      1156            0.0000000000
      3583      1168  TIP3      OH2            18.6067896015       -1.4635657466      -24.1281246635  SOLV      1157            0.0000000000
      3584      1168  TIP3      H1             18.2406096015       -2.2293057466      -23.6856546635  SOLV      1157            0.0000000000
      3585      1168  TIP3      H2             19.5196396015       -1.4345457466      -23.8416146635  SOLV      1157            0.0000000000
      3586      1169  TIP3      OH2            20.5798696015       -2.1131257466      -22.5924146635  SOLV      1158            0.0000000000
      3587      1169  TIP3      H1             21.4782296015       -2.3871057466      -22.7770746635  SOLV      1158            0.0000000000
      3588      1169  TIP3      H2             20.1931796015       -2.8555257466      -22.1281546635  SOLV      1158            0.0000000000
      3589      1170  TIP3      OH2            29.0010996015       -2.7805957466      -22.4101346635  SOLV      1159            0.0000000000
      3590      1170  TIP3      H1             29.0778196015       -3.2065257466      -21.5563646635  SOLV      1159            0.0000000000
      3591      1170  TIP3      H2             29.8947596015       -2.7671257466      -22.7527846635  SOLV      1159            0.0000000000
      3592      1171  TIP3      OH2            37.7802396015        1.1849142534      -23.0019146635  SOLV      1160            0.0000000000
      3593      1171  TIP3      H1             37.9919796015        0.4785242534      -23.6121646635  SOLV      1160            0.0000000000
      3594      1171  TIP3      H2             37.6689896015        0.7475142534      -22.1577946635  SOLV      1160            0.0000000000
      3595      1172  TIP3      OH2            35.2261396015        2.2079142534      -23.8353446635  SOLV      1161            0.0000000000
      3596      1172  TIP3      H1             36.1456296015        2.0857442534      -23.5990346635  SOLV      1161            0.0000000000
      3597      1172  TIP3      H2             34.7765896015        1.4578842534      -23.4459946635  SOLV      1161            0.0000000000
      3598      1173  TIP3      OH2            37.4627896015       -1.4635657466      -24.1281246635  SOLV      1162            0.0000000000
      3599      1173  TIP3      H1             37.0966096015       -2.2293057466      -23.6856546635  SOLV      1162            0.0000000000
      3600      1173  TIP3      H2             38.3756396015       -1.4345457466      -23.8416146635  SOLV      1162            0.0000000000
      3601      1174  TIP3      OH2           -22.8552003985       19.3232142534      -29.0014546635  SOLV      1163            0.0000000000
      3602      1174  TIP3      H1            -22.8059803985       19.9333342534      -28.2655446635  SOLV      1163            0.0000000000
      3603      1174  TIP3      H2            -22.4296903985       19.7843042534      -29.7243446635  SOLV      1163            0.0000000000
      3604      1175  TIP3      OH2           -22.4637403985       20.8011342534      -26.7654746635  SOLV      1164            0.0000000000
      3605      1175  TIP3      H1            -23.1522803985       21.4592042534      -26.8608146635  SOLV      1164            0.0000000000
      3606      1175  TIP3      H2            -22.4482803985       20.6039242534      -25.8289346635  SOLV      1164            0.0000000000
      3607      1176  TIP3      OH2           -25.3891303985       18.3541842534      -28.2013446635  SOLV      1165            0.0000000000
      3608      1176  TIP3      H1            -26.1252103985       18.9648942534      -28.2392146635  SOLV      1165            0.0000000000
      3609      1176  TIP3      H2            -24.7057303985       18.7690842534      -28.7277046635  SOLV      1165            0.0000000000
      3610      1177  TIP3      OH2           -24.8849803985       22.4903742534      -23.9500046635  SOLV      1166            0.0000000000
      3611      1177  TIP3      H1            -25.2923003985       22.9709342534      -24.6706746635  SOLV      1166            0.0000000000
      3612      1177  TIP3      H2            -24.8444103985       21.5849742534      -24.2579246635  SOLV      1166            0.0000000000
      3613      1178  TIP3      OH2           -30.4544503985       17.0664042534      -26.5832146635  SOLV      1167            0.0000000000
      3614      1178  TIP3      H1            -30.0341403985       16.6511142534      -25.8301546635  SOLV      1167            0.0000000000
      3615      1178  TIP3      H2            -31.3874903985       16.8877342534      -26.4660146635  SOLV      1167            0.0000000000
      3616      1179  TIP3      OH2           -27.1279603985       20.8219242534      -25.7297646635  SOLV      1168            0.0000000000
      3617      1179  TIP3      H1            -27.6420103985       20.6961442534      -24.9321646635  SOLV      1168            0.0000000000
      3618      1179  TIP3      H2            -27.2834903985       21.7342342534      -25.9741446635  SOLV      1168            0.0000000000
      3619      1180  TIP3      OH2           -30.3916003985       23.1224942534      -23.6457446635  SOLV      1169            0.0000000000
      3620      1180  TIP3      H1            -30.9542203985       22.4176542534      -23.3249646635  SOLV      1169            0.0000000000
      3621      1180  TIP3      H2            -29.5652603985       23.0016842534      -23.1779846635  SOLV      1169            0.0000000000
      3622      1181  TIP3      OH2           -29.4558703985       19.5972442534      -27.3462046635  SOLV      1170            0.0000000000
      3623      1181  TIP3      H1            -28.7570803985       19.6711142534      -26.6962346635  SOLV      1170            0.0000000000
      3624      1181  TIP3      H2            -29.8367303985       18.7327442534      -27.1919146635  SOLV      1170            0.0000000000
      3625      1182  TIP3      OH2           -24.7311703985       19.8705942534      -25.3945046635  SOLV      1171            0.0000000000
      3626      1182  TIP3      H1            -25.6475903985       20.1327642534      -25.4821346635  SOLV      1171            0.0000000000
      3627      1182  TIP3      H2            -24.3956703985       19.8674942534      -26.2909746635  SOLV      1171            0.0000000000
      3628      1183  TIP3      OH2           -29.6222203985       26.0386342534      -22.4227746635  SOLV      1172            0.0000000000
      3629      1183  TIP3      H1            -28.6691003985       26.1225442534      -22.4501746635  SOLV      1172            0.0000000000
      3630      1183  TIP3      H2            -29.7827603985       25.3268142534      -21.8032846635  SOLV      1172            0.0000000000
      3631      1184  TIP3      OH2           -27.8926403985       22.5465642534      -21.8571546635  SOLV      1173            0.0000000000
      3632      1184  TIP3      H1            -27.7005103985       21.6155042534      -21.9687046635  SOLV      1173            0.0000000000
      3633      1184  TIP3      H2            -27.0350103985       22.9715142534      -21.8676146635  SOLV      1173            0.0000000000
      3634      1185  TIP3      OH2           -26.5759203985       25.3350842534      -23.7798846635  SOLV      1174            0.0000000000
      3635      1185  TIP3      H1            -26.8574203985       26.0445442534      -24.3575046635  SOLV      1174            0.0000000000
      3636      1185  TIP3      H2            -25.6334903985       25.2623842534      -23.9307646635  SOLV      1174            0.0000000000
      3637      1186  TIP3      OH2           -29.1048403985       20.1972242534      -24.0546546635  SOLV      1175            0.0000000000
      3638      1186  TIP3      H1            -30.0523003985       20.2291942534      -23.9223246635  SOLV      1175            0.0000000000
      3639      1186  TIP3      H2            -28.7921703985       19.5719342534      -23.4008346635  SOLV      1175            0.0000000000
      3640      1187  TIP3      OH2           -27.4706903985       18.8313342534      -22.0494646635  SOLV      1176            0.0000000000
      3641      1187  TIP3      H1            -27.5675103985       17.8790642534      -22.0552746635  SOLV      1176            0.0000000000
      3642      1187  TIP3      H2            -27.7923803985       19.1000142534      -21.1889146635  SOLV      1176            0.0000000000
      3643      1188  TIP3      OH2           -32.8627403985       16.0420742534      -24.0225646635  SOLV      1177            0.0000000000
      3644      1188  TIP3      H1            -32.1509003985       15.4022942534      -24.0366546635  SOLV      1177            0.0000000000
      3645      1188  TIP3      H2            -32.9637003985       16.3089042534      -24.9362546635  SOLV      1177            0.0000000000
      3646      1189  TIP3      OH2           -32.5089903985       17.7249142534      -21.9689346635  SOLV      1178            0.0000000000
      3647      1189  TIP3      H1            -32.6407703985       17.2492942534      -22.7890846635  SOLV      1178            0.0000000000
      3648      1189  TIP3      H2            -33.1082503985       18.4692742534      -22.0242246635  SOLV      1178            0.0000000000
      3649      1190  TIP3      OH2           -24.3127903985       28.8844342534      -21.8872946635  SOLV      1179            0.0000000000
      3650      1190  TIP3      H1            -25.1786803985       28.7794042534      -21.4930646635  SOLV      1179            0.0000000000
      3651      1190  TIP3      H2            -23.9362003985       29.6427642534      -21.4408246635  SOLV      1179            0.0000000000
      3652      1191  TIP3      OH2           -24.4790803985       22.6160442534      -27.3122646635  SOLV      1180            0.0000000000
      3653      1191  TIP3      H1            -25.3219503985       22.8840842534      -26.9462846635  SOLV      1180            0.0000000000
      3654      1191  TIP3      H2            -24.0366503985       23.4382342534      -27.5231546635  SOLV      1180            0.0000000000
      3655      1192  TIP3      OH2           -22.6762003985       18.7055242534      -23.6096346635  SOLV      1181            0.0000000000
      3656      1192  TIP3      H1            -23.5936303985       18.9762342534      -23.6452846635  SOLV      1181            0.0000000000
      3657      1192  TIP3      H2            -22.5532603985       18.1703642534      -24.3936646635  SOLV      1181            0.0000000000
      3658      1193  TIP3      OH2           -23.6756103985       16.7951542534      -25.7905546635  SOLV      1182            0.0000000000
      3659      1193  TIP3      H1            -24.4882603985       17.1201842534      -26.1780846635  SOLV      1182            0.0000000000
      3660      1193  TIP3      H2            -23.4427603985       16.0350042534      -26.3236446635  SOLV      1182            0.0000000000
      3661      1194  TIP3      OH2           -25.1030403985       16.3516142534      -31.3550246635  SOLV      1183            0.0000000000
      3662      1194  TIP3      H1            -24.4992803985       16.8991542534      -31.8569246635  SOLV      1183            0.0000000000
      3663      1194  TIP3      H2            -25.9728403985       16.6706542534      -31.5956146635  SOLV      1183            0.0000000000
      3664      1195  TIP3      OH2           -27.5669003985       16.0754042534      -22.4101346635  SOLV      1184            0.0000000000
      3665      1195  TIP3      H1            -27.4901803985       15.6494742534      -21.5563646635  SOLV      1184            0.0000000000
      3666      1195  TIP3      H2            -26.6732403985       16.0888742534      -22.7527846635  SOLV      1184            0.0000000000
      3667      1196  TIP3      OH2           -11.0516203985       25.2895442534      -30.2681746635  SOLV      1185            0.0000000000
      3668      1196  TIP3      H1            -11.0898703985       24.6431742534      -29.5632146635  SOLV      1185            0.0000000000
      3669      1196  TIP3      H2            -11.3739703985       24.8229842534      -31.0393046635  SOLV      1185            0.0000000000
      3670      1197  TIP3      OH2           -18.6831203985       24.9037542534      -28.6751846635  SOLV      1186            0.0000000000
      3671      1197  TIP3      H1            -18.6419103985       24.2780842534      -27.9519446635  SOLV      1186            0.0000000000
      3672      1197  TIP3      H2            -17.9803503985       25.5276142534      -28.4931446635  SOLV      1186            0.0000000000
      3673      1198  TIP3      OH2            -7.3456003985       28.2285842534      -31.9666646635  SOLV      1187            0.0000000000
      3674      1198  TIP3      H1             -7.7863303985       27.5081842534      -31.5161046635  SOLV      1187            0.0000000000
      3675      1198  TIP3      H2             -7.3586303985       28.9493042534      -31.3368946635  SOLV      1187            0.0000000000
      3676      1199  TIP3      OH2           -12.6621803985       27.7216842534      -29.8620746635  SOLV      1188            0.0000000000
      3677      1199  TIP3      H1            -12.3583903985       27.0358242534      -30.4566646635  SOLV      1188            0.0000000000
      3678      1199  TIP3      H2            -11.9407803985       27.8405542534      -29.2442746635  SOLV      1188            0.0000000000
      3679      1200  TIP3      OH2            -3.9992003985       19.3232142534      -29.0014546635  SOLV      1189            0.0000000000
      3680      1200  TIP3      H1             -3.9499803985       19.9333342534      -28.2655446635  SOLV      1189            0.0000000000
      3681      1200  TIP3      H2             -3.5736903985       19.7843042534      -29.7243446635  SOLV      1189            0.0000000000
      3682      1201  TIP3      OH2            -9.5214803985       22.1159242534      -29.5345946635  SOLV      1190            0.0000000000
      3683      1201  TIP3      H1             -9.3788903985       21.1696242534      -29.5144346635  SOLV      1190            0.0000000000
      3684      1201  TIP3      H2             -9.6275803985       22.3229042534      -30.4631046635  SOLV      1190            0.0000000000
      3685      1202  TIP3      OH2           -16.3666503985       20.2175642534      -32.2621146635  SOLV      1191            0.0000000000
      3686      1202  TIP3      H1            -16.3235403985       21.0774142534      -32.6804846635  SOLV      1191            0.0000000000
      3687      1202  TIP3      H2            -16.8242403985       19.6650342534      -32.8957946635  SOLV      1191            0.0000000000
      3688      1203  TIP3      OH2            -8.6443803985       20.3481242534      -33.8612846635  SOLV      1192            0.0000000000
      3689      1203  TIP3      H1             -7.9979503985       20.0194442534      -33.2365246635  SOLV      1192            0.0000000000
      3690      1203  TIP3      H2             -8.1344403985       20.8660242534      -34.4841446635  SOLV      1192            0.0000000000
      3691      1204  TIP3      OH2           -14.5900503985       24.1642742534      -32.2848246635  SOLV      1193            0.0000000000
      3692      1204  TIP3      H1            -13.9739503985       23.6378142534      -31.7754246635  SOLV      1193            0.0000000000
      3693      1204  TIP3      H2            -15.1761703985       23.5241442534      -32.6884646635  SOLV      1193            0.0000000000
      3694      1205  TIP3      OH2            -3.6077403985       20.8011342534      -26.7654746635  SOLV      1194            0.0000000000
      3695      1205  TIP3      H1             -4.2962803985       21.4592042534      -26.8608146635  SOLV      1194            0.0000000000
      3696      1205  TIP3      H2             -3.5922803985       20.6039242534      -25.8289346635  SOLV      1194            0.0000000000
      3697      1206  TIP3      OH2           -17.5564603985       19.1354042534      -28.1880346635  SOLV      1195            0.0000000000
      3698      1206  TIP3      H1            -17.7752903985       19.6654642534      -28.9544346635  SOLV      1195            0.0000000000
      3699      1206  TIP3      H2            -18.2243703985       19.3619542534      -27.5408946635  SOLV      1195            0.0000000000
      3700      1207  TIP3      OH2           -14.9873203985       26.8109742534      -27.9006646635  SOLV      1196            0.0000000000
      3701      1207  TIP3      H1            -15.7274103985       27.4091242534      -27.7971446635  SOLV      1196            0.0000000000
      3702      1207  TIP3      H2            -14.2733703985       27.3649342534      -28.2163046635  SOLV      1196            0.0000000000
      3703      1208  TIP3      OH2            -6.8805403985       19.6390542534      -31.8806946635  SOLV      1197            0.0000000000
      3704      1208  TIP3      H1             -7.0957403985       18.8733942534      -31.3480946635  SOLV      1197            0.0000000000
      3705      1208  TIP3      H2             -6.2248003985       20.1115142534      -31.3678446635  SOLV      1197            0.0000000000
      3706      1209  TIP3      OH2           -17.9627303985       21.0275842534      -30.2358146635  SOLV      1198            0.0000000000
      3707      1209  TIP3      H1            -17.3491003985       21.6603442534      -29.8625746635  SOLV      1198            0.0000000000
      3708      1209  TIP3      H2            -17.4506603985       20.5550842534      -30.8921246635  SOLV      1198            0.0000000000
      3709      1210  TIP3      OH2            -6.8338303985       30.0676542534      -29.6187346635  SOLV      1199            0.0000000000
      3710      1210  TIP3      H1             -7.7754603985       30.1260442534      -29.4570446635  SOLV      1199            0.0000000000
      3711      1210  TIP3      H2             -6.5572203985       30.9737042534      -29.7557646635  SOLV      1199            0.0000000000
      3712      1211  TIP3      OH2            -6.5331303985       18.3541842534      -28.2013446635  SOLV      1200            0.0000000000
      3713      1211  TIP3      H1             -7.2692103985       18.9648942534      -28.2392146635  SOLV      1200            0.0000000000
      3714      1211  TIP3      H2             -5.8497303985       18.7690842534      -28.7277046635  SOLV      1200            0.0000000000
      3715      1212  TIP3      OH2           -13.5299903985       16.4409142534      -30.7355446635  SOLV      1201            0.0000000000
      3716      1212  TIP3      H1            -13.6475703985       15.4925142534      -30.7897146635  SOLV      1201            0.0000000000
      3717      1212  TIP3      H2            -14.3849803985       16.7735242534      -30.4624346635  SOLV      1201            0.0000000000
      3718      1213  TIP3      OH2            -5.7360403985       28.3165242534      -26.0075646635  SOLV      1202            0.0000000000
      3719      1213  TIP3      H1             -5.5964103985       27.7247742534      -26.7468646635  SOLV      1202            0.0000000000
      3720      1213  TIP3      H2             -5.5687603985       29.1891142534      -26.3636846635  SOLV      1202            0.0000000000
      3721      1214  TIP3      OH2            -3.8941103985       24.6563242534      -27.9415246635  SOLV      1203            0.0000000000
      3722      1214  TIP3      H1             -4.5467003985       25.3508842534      -27.8524346635  SOLV      1203            0.0000000000
      3723      1214  TIP3      H2             -3.4290803985       24.8664142534      -28.7513646635  SOLV      1203            0.0000000000
      3724      1215  TIP3      OH2            -7.8577303985       25.4878042534      -35.2833746635  SOLV      1204            0.0000000000
      3725      1215  TIP3      H1             -8.5896303985       25.7161742534      -34.7103146635  SOLV      1204            0.0000000000
      3726      1215  TIP3      H2             -7.4105103985       24.7740742534      -34.8286246635  SOLV      1204            0.0000000000
      3727      1216  TIP3      OH2            -7.9603803985       23.6620642534      -26.2156746635  SOLV      1205            0.0000000000
      3728      1216  TIP3      H1             -7.8804703985       24.4255042534      -25.6438246635  SOLV      1205            0.0000000000
      3729      1216  TIP3      H2             -8.5616103985       23.9413042534      -26.9061646635  SOLV      1205            0.0000000000
      3730      1217  TIP3      OH2           -15.8458103985       24.8869842534      -29.7673746635  SOLV      1206            0.0000000000
      3731      1217  TIP3      H1            -15.2805603985       25.0084042534      -30.5302546635  SOLV      1206            0.0000000000
      3732      1217  TIP3      H2            -15.5269203985       25.5244842534      -29.1285246635  SOLV      1206            0.0000000000
      3733      1218  TIP3      OH2            -9.5365903985       30.3901742534      -29.0333246635  SOLV      1207            0.0000000000
      3734      1218  TIP3      H1             -9.7769303985       31.0524842534      -28.3854046635  SOLV      1207            0.0000000000
      3735      1218  TIP3      H2             -9.7347703985       29.5556942534      -28.6083646635  SOLV      1207            0.0000000000
      3736      1219  TIP3      OH2           -14.9657403985       29.2862542534      -25.0501846635  SOLV      1208            0.0000000000
      3737      1219  TIP3      H1            -15.2769903985       30.0685742534      -24.5948646635  SOLV      1208            0.0000000000
      3738      1219  TIP3      H2            -15.6157203985       29.1331642534      -25.7359846635  SOLV      1208            0.0000000000
      3739      1220  TIP3      OH2           -18.0457503985       25.4843642534      -25.8216146635  SOLV      1209            0.0000000000
      3740      1220  TIP3      H1            -17.9754303985       26.1350442534      -25.1231146635  SOLV      1209            0.0000000000
      3741      1220  TIP3      H2            -18.9365303985       25.5871142534      -26.1565246635  SOLV      1209            0.0000000000
      3742      1221  TIP3      OH2           -16.7261503985       31.3577542534      -24.2868046635  SOLV      1210            0.0000000000
      3743      1221  TIP3      H1            -16.7186203985       31.2217242534      -25.2342546635  SOLV      1210            0.0000000000
      3744      1221  TIP3      H2            -17.6421103985       31.2405642534      -24.0348046635  SOLV      1210            0.0000000000
      3745      1222  TIP3      OH2            -5.2879403985       16.4001342534      -37.7852846635  SOLV      1211            0.0000000000
      3746      1222  TIP3      H1             -6.1878703985       16.5390342534      -37.4902246635  SOLV      1211            0.0000000000
      3747      1222  TIP3      H2             -5.0361003985       17.2315942534      -38.1871146635  SOLV      1211            0.0000000000
      3748      1223  TIP3      OH2            -3.1809603985       30.9971242534      -24.4302246635  SOLV      1212            0.0000000000
      3749      1223  TIP3      H1             -3.2302803985       30.0419342534      -24.4674646635  SOLV      1212            0.0000000000
      3750      1223  TIP3      H2             -4.0077303985       31.2646542534      -24.0288446635  SOLV      1212            0.0000000000
      3751      1224  TIP3      OH2           -12.2025603985       30.5710442534      -25.5540846635  SOLV      1213            0.0000000000
      3752      1224  TIP3      H1            -12.1151003985       31.3975042534      -25.0791746635  SOLV      1213            0.0000000000
      3753      1224  TIP3      H2            -13.0660503985       30.2414242534      -25.3051546635  SOLV      1213            0.0000000000
      3754      1225  TIP3      OH2            -6.0289803985       22.4903742534      -23.9500046635  SOLV      1214            0.0000000000
      3755      1225  TIP3      H1             -6.4363003985       22.9709342534      -24.6706746635  SOLV      1214            0.0000000000
      3756      1225  TIP3      H2             -5.9884103985       21.5849742534      -24.2579246635  SOLV      1214            0.0000000000
      3757      1226  TIP3      OH2           -18.8800303985       28.8743142534      -25.9533346635  SOLV      1215            0.0000000000
      3758      1226  TIP3      H1            -18.6639003985       28.5128742534      -25.0937546635  SOLV      1215            0.0000000000
      3759      1226  TIP3      H2            -19.7355603985       28.4996942534      -26.1629846635  SOLV      1215            0.0000000000
      3760      1227  TIP3      OH2           -16.2612303985       17.3443642534      -29.9579146635  SOLV      1216            0.0000000000
      3761      1227  TIP3      H1            -17.1228603985       17.2571842534      -30.3656246635  SOLV      1216            0.0000000000
      3762      1227  TIP3      H2            -16.2836603985       18.2003742534      -29.5301546635  SOLV      1216            0.0000000000
      3763      1228  TIP3      OH2           -11.5984503985       17.0664042534      -26.5832146635  SOLV      1217            0.0000000000
      3764      1228  TIP3      H1            -11.1781403985       16.6511142534      -25.8301546635  SOLV      1217            0.0000000000
      3765      1228  TIP3      H2            -12.5314903985       16.8877342534      -26.4660146635  SOLV      1217            0.0000000000
      3766      1229  TIP3      OH2            -8.2719603985       20.8219242534      -25.7297646635  SOLV      1218            0.0000000000
      3767      1229  TIP3      H1             -8.7860103985       20.6961442534      -24.9321646635  SOLV      1218            0.0000000000
      3768      1229  TIP3      H2             -8.4274903985       21.7342342534      -25.9741446635  SOLV      1218            0.0000000000
      3769      1230  TIP3      OH2           -16.1702203985       22.3098142534      -28.8628946635  SOLV      1219            0.0000000000
      3770      1230  TIP3      H1            -16.8120103985       22.2695442534      -28.1538846635  SOLV      1219            0.0000000000
      3771      1230  TIP3      H2            -16.1330203985       23.2362842534      -29.1005946635  SOLV      1219            0.0000000000
      3772      1231  TIP3      OH2           -11.5356003985       23.1224942534      -23.6457446635  SOLV      1220            0.0000000000
      3773      1231  TIP3      H1            -12.0982203985       22.4176542534      -23.3249646635  SOLV      1220            0.0000000000
      3774      1231  TIP3      H2            -10.7092603985       23.0016842534      -23.1779846635  SOLV      1220            0.0000000000
      3775      1232  TIP3      OH2            -9.6329903985       22.3928942534      -32.3198446635  SOLV      1221            0.0000000000
      3776      1232  TIP3      H1             -9.8285403985       22.9985742534      -33.0347846635  SOLV      1221            0.0000000000
      3777      1232  TIP3      H2             -9.4517303985       21.5594142534      -32.7542146635  SOLV      1221            0.0000000000
      3778      1233  TIP3      OH2           -18.4201703985       22.6301642534      -26.9956946635  SOLV      1222            0.0000000000
      3779      1233  TIP3      H1            -18.4582303985       23.0303242534      -26.1269846635  SOLV      1222            0.0000000000
      3780      1233  TIP3      H2            -18.9110603985       21.8134042534      -26.9054046635  SOLV      1222            0.0000000000
      3781      1234  TIP3      OH2           -10.3690703985       24.0310242534      -27.6486046635  SOLV      1223            0.0000000000
      3782      1234  TIP3      H1            -10.0455903985       23.3999942534      -28.2915546635  SOLV      1223            0.0000000000
      3783      1234  TIP3      H2            -10.8091403985       23.4962442534      -26.9878646635  SOLV      1223            0.0000000000
      3784      1235  TIP3      OH2           -13.5917803985       19.9585742534      -32.8644846635  SOLV      1224            0.0000000000
      3785      1235  TIP3      H1            -14.5026703985       20.0152542534      -32.5758846635  SOLV      1224            0.0000000000
      3786      1235  TIP3      H2            -13.0864903985       19.8981242534      -32.0537646635  SOLV      1224            0.0000000000
      3787      1236  TIP3      OH2            -9.1865903985       19.1932042534      -29.6003046635  SOLV      1225            0.0000000000
      3788      1236  TIP3      H1             -9.8634303985       19.3245142534      -28.9363346635  SOLV      1225            0.0000000000
      3789      1236  TIP3      H2             -9.6721003985       19.0381542534      -30.4105346635  SOLV      1225            0.0000000000
      3790      1237  TIP3      OH2            -5.8990803985       34.8647442534      -23.3235446635  SOLV      1226            0.0000000000
      3791      1237  TIP3      H1             -5.6992103985       35.2889342534      -24.1580146635  SOLV      1226            0.0000000000
      3792      1237  TIP3      H2             -5.2437103985       35.2085642534      -22.7165046635  SOLV      1226            0.0000000000
      3793      1238  TIP3      OH2           -18.3011003985       27.3388742534      -23.7154946635  SOLV      1227            0.0000000000
      3794      1238  TIP3      H1            -17.5688603985       27.5934642534      -23.1540446635  SOLV      1227            0.0000000000
      3795      1238  TIP3      H2            -19.0812303985       27.5434142534      -23.1999546635  SOLV      1227            0.0000000000
      3796      1239  TIP3      OH2           -12.2718103985       22.7458742534      -30.9775246635  SOLV      1228            0.0000000000
      3797      1239  TIP3      H1            -11.7074703985       22.1995342534      -31.5245646635  SOLV      1228            0.0000000000
      3798      1239  TIP3      H2            -12.4194703985       22.2240642534      -30.1887646635  SOLV      1228            0.0000000000
      3799      1240  TIP3      OH2           -17.2698403985       18.8824842534      -34.5590446635  SOLV      1229            0.0000000000
      3800      1240  TIP3      H1            -17.5868903985       17.9800142534      -34.5945046635  SOLV      1229            0.0000000000
      3801      1240  TIP3      H2            -16.4884303985       18.8842242534      -35.1118846635  SOLV      1229            0.0000000000
      3802      1241  TIP3      OH2           -13.6452203985       21.1344842534      -28.5634846635  SOLV      1230            0.0000000000
      3803      1241  TIP3      H1            -14.4806903985       21.5884342534      -28.4532446635  SOLV      1230            0.0000000000
      3804      1241  TIP3      H2            -13.1211603985       21.4103342534      -27.8114946635  SOLV      1230            0.0000000000
      3805      1242  TIP3      OH2            -5.9510703985       26.4800742534      -28.0920846635  SOLV      1231            0.0000000000
      3806      1242  TIP3      H1             -5.3091903985       26.9367042534      -28.6358646635  SOLV      1231            0.0000000000
      3807      1242  TIP3      H2             -6.7813803985       26.5933142534      -28.5546746635  SOLV      1231            0.0000000000
      3808      1243  TIP3      OH2           -11.5817503985       27.5315842534      -25.6419346635  SOLV      1232            0.0000000000
      3809      1243  TIP3      H1            -11.9271403985       27.1498242534      -24.8349746635  SOLV      1232            0.0000000000
      3810      1243  TIP3      H2            -11.7817403985       28.4649442534      -25.5706446635  SOLV      1232            0.0000000000
      3811      1244  TIP3      OH2            -8.4849303985       22.0285142534      -37.0188446635  SOLV      1233            0.0000000000
      3812      1244  TIP3      H1             -7.5930303985       21.8910142534      -36.6997246635  SOLV      1233            0.0000000000
      3813      1244  TIP3      H2             -8.4285703985       22.8191242534      -37.5554946635  SOLV      1233            0.0000000000
      3814      1245  TIP3      OH2           -20.9681603985       25.1029442534      -25.7942046635  SOLV      1234            0.0000000000
      3815      1245  TIP3      H1            -20.7453003985       24.6849042534      -24.9624546635  SOLV      1234            0.0000000000
      3816      1245  TIP3      H2            -21.5701503985       24.4904442534      -26.2169246635  SOLV      1234            0.0000000000
      3817      1246  TIP3      OH2           -13.9516703985       24.6199342534      -23.5812346635  SOLV      1235            0.0000000000
      3818      1246  TIP3      H1            -14.2475903985       24.4542342534      -24.4763246635  SOLV      1235            0.0000000000
      3819      1246  TIP3      H2            -13.0201503985       24.3999642534      -23.5918446635  SOLV      1235            0.0000000000
      3820      1247  TIP3      OH2            -9.3313903985       29.9931342534      -25.6914346635  SOLV      1236            0.0000000000
      3821      1247  TIP3      H1            -10.2319603985       30.1763942534      -25.9590446635  SOLV      1236            0.0000000000
      3822      1247  TIP3      H2             -9.2972803985       30.2520642534      -24.7705546635  SOLV      1236            0.0000000000
      3823      1248  TIP3      OH2            -3.6000603985       22.2379242534      -37.3241746635  SOLV      1237            0.0000000000
      3824      1248  TIP3      H1             -4.1544303985       21.8417242534      -37.9964246635  SOLV      1237            0.0000000000
      3825      1248  TIP3      H2             -3.4997003985       23.1484442534      -37.6018446635  SOLV      1237            0.0000000000
      3826      1249  TIP3      OH2            -3.6368603985       28.0380942534      -24.4870246635  SOLV      1238            0.0000000000
      3827      1249  TIP3      H1             -4.4880103985       28.2764742534      -24.8543846635  SOLV      1238            0.0000000000
      3828      1249  TIP3      H2             -3.0465203985       28.0214142534      -25.2403146635  SOLV      1238            0.0000000000
      3829      1250  TIP3      OH2            -8.1445003985       25.8319142534      -29.8377746635  SOLV      1239            0.0000000000
      3830      1250  TIP3      H1             -9.0728103985       25.6001042534      -29.8648446635  SOLV      1239            0.0000000000
      3831      1250  TIP3      H2             -7.6933903985       25.0548942534      -30.1678946635  SOLV      1239            0.0000000000
      3832      1251  TIP3      OH2           -10.1152203985       28.0714942534      -28.1128046635  SOLV      1240            0.0000000000
      3833      1251  TIP3      H1            -10.5410903985       27.8436642534      -27.2864046635  SOLV      1240            0.0000000000
      3834      1251  TIP3      H2             -9.5346403985       27.3326742534      -28.2952746635  SOLV      1240            0.0000000000
      3835      1252  TIP3      OH2            -7.4568003985       32.6234442534      -25.6433246635  SOLV      1241            0.0000000000
      3836      1252  TIP3      H1             -8.0584803985       32.0677342534      -26.1386946635  SOLV      1241            0.0000000000
      3837      1252  TIP3      H2             -7.1754303985       33.2904242534      -26.2695846635  SOLV      1241            0.0000000000
      3838      1253  TIP3      OH2           -19.3342103985       19.8562142534      -26.2360646635  SOLV      1242            0.0000000000
      3839      1253  TIP3      H1            -20.2269803985       20.1947542534      -26.3036646635  SOLV      1242            0.0000000000
      3840      1253  TIP3      H2            -19.4329303985       19.0008242534      -25.8179846635  SOLV      1242            0.0000000000
      3841      1254  TIP3      OH2           -10.5998703985       19.5972442534      -27.3462046635  SOLV      1243            0.0000000000
      3842      1254  TIP3      H1             -9.9010803985       19.6711142534      -26.6962346635  SOLV      1243            0.0000000000
      3843      1254  TIP3      H2            -10.9807303985       18.7327442534      -27.1919146635  SOLV      1243            0.0000000000
      3844      1255  TIP3      OH2            -9.8153803985       19.2494142534      -36.2489746635  SOLV      1244            0.0000000000
      3845      1255  TIP3      H1             -9.5955503985       19.7209542534      -37.0524346635  SOLV      1244            0.0000000000
      3846      1255  TIP3      H2             -9.2569803985       19.6436742534      -35.5789146635  SOLV      1244            0.0000000000
      3847      1256  TIP3      OH2           -12.6153903985       20.9772942534      -35.4141346635  SOLV      1245            0.0000000000
      3848      1256  TIP3      H1            -11.8031303985       21.4816142534      -35.3679646635  SOLV      1245            0.0000000000
      3849      1256  TIP3      H2            -12.8600903985       20.8322642534      -34.5001746635  SOLV      1245            0.0000000000
      3850      1257  TIP3      OH2           -12.0797503985       21.9635642534      -26.2294746635  SOLV      1246            0.0000000000
      3851      1257  TIP3      H1            -11.9607203985       22.5371042534      -25.4724346635  SOLV      1246            0.0000000000
      3852      1257  TIP3      H2            -11.4242903985       21.2755042534      -26.1146946635  SOLV      1246            0.0000000000
      3853      1258  TIP3      OH2           -11.7317203985       18.0585942534      -34.4760246635  SOLV      1247            0.0000000000
      3854      1258  TIP3      H1            -12.0783703985       18.6756542534      -33.8315946635  SOLV      1247            0.0000000000
      3855      1258  TIP3      H2            -11.0730303985       18.5591642534      -34.9574746635  SOLV      1247            0.0000000000
      3856      1259  TIP3      OH2            -5.8751703985       19.8705942534      -25.3945046635  SOLV      1248            0.0000000000
      3857      1259  TIP3      H1             -6.7915903985       20.1327642534      -25.4821346635  SOLV      1248            0.0000000000
      3858      1259  TIP3      H2             -5.5396703985       19.8674942534      -26.2909746635  SOLV      1248            0.0000000000
      3859      1260  TIP3      OH2            -7.2730703985       23.6206942534      -31.2987746635  SOLV      1249            0.0000000000
      3860      1260  TIP3      H1             -8.0706303985       23.2057142534      -31.6272746635  SOLV      1249            0.0000000000
      3861      1260  TIP3      H2             -6.8279603985       22.9300642534      -30.8077246635  SOLV      1249            0.0000000000
      3862      1261  TIP3      OH2            -6.1866103985       32.8769442534      -29.6764246635  SOLV      1250            0.0000000000
      3863      1261  TIP3      H1             -6.3421803985       33.5553842534      -30.3334946635  SOLV      1250            0.0000000000
      3864      1261  TIP3      H2             -5.2539703985       32.9488742534      -29.4733646635  SOLV      1250            0.0000000000
      3865      1262  TIP3      OH2           -18.6913703985       16.9947142534      -30.9392846635  SOLV      1251            0.0000000000
      3866      1262  TIP3      H1            -18.9203903985       17.0539642534      -31.8667846635  SOLV      1251            0.0000000000
      3867      1262  TIP3      H2            -19.1340303985       16.2032642534      -30.6328746635  SOLV      1251            0.0000000000
      3868      1263  TIP3      OH2           -15.8753303985       32.4672342534      -21.8284846635  SOLV      1252            0.0000000000
      3869      1263  TIP3      H1            -15.1076103985       32.0083142534      -21.4875646635  SOLV      1252            0.0000000000
      3870      1263  TIP3      H2            -15.8967103985       32.2412142534      -22.7583646635  SOLV      1252            0.0000000000
      3871      1264  TIP3      OH2            -9.2984603985       30.8473442534      -23.0993346635  SOLV      1253            0.0000000000
      3872      1264  TIP3      H1             -9.6495103985       29.9906442534      -22.8562946635  SOLV      1253            0.0000000000
      3873      1264  TIP3      H2             -8.5721403985       30.9900142534      -22.4924346635  SOLV      1253            0.0000000000
      3874      1265  TIP3      OH2           -20.5657203985       27.3582042534      -22.4944746635  SOLV      1254            0.0000000000
      3875      1265  TIP3      H1            -20.4216703985       26.4562742534      -22.7808046635  SOLV      1254            0.0000000000
      3876      1265  TIP3      H2            -21.3379803985       27.6444142534      -22.9822446635  SOLV      1254            0.0000000000
      3877      1266  TIP3      OH2           -13.9101103985       27.3280142534      -23.0618346635  SOLV      1255            0.0000000000
      3878      1266  TIP3      H1            -14.2387303985       27.5988242534      -23.9190946635  SOLV      1255            0.0000000000
      3879      1266  TIP3      H2            -13.7582903985       26.3869942534      -23.1493346635  SOLV      1255            0.0000000000
      3880      1267  TIP3      OH2            -8.1755903985       27.2437442534      -25.6786046635  SOLV      1256            0.0000000000
      3881      1267  TIP3      H1             -7.4301103985       27.8321142534      -25.7982046635  SOLV      1256            0.0000000000
      3882      1267  TIP3      H2             -8.9329103985       27.8257142534      -25.6152946635  SOLV      1256            0.0000000000
      3883      1268  TIP3      OH2           -19.7330703985       24.5585342534      -23.0745446635  SOLV      1257            0.0000000000
      3884      1268  TIP3      H1            -19.3249503985       23.7011942534      -23.1954846635  SOLV      1257            0.0000000000
      3885      1268  TIP3      H2            -19.9933103985       24.5726642534      -22.1535146635  SOLV      1257            0.0000000000
      3886      1269  TIP3      OH2           -15.7860403985       23.5671042534      -25.7002546635  SOLV      1258            0.0000000000
      3887      1269  TIP3      H1            -16.4044303985       24.2417642534      -25.4197846635  SOLV      1258            0.0000000000
      3888      1269  TIP3      H2            -15.4419203985       23.8884942534      -26.5336346635  SOLV      1258            0.0000000000
      3889      1270  TIP3      OH2           -10.7662203985       26.0386342534      -22.4227746635  SOLV      1259            0.0000000000
      3890      1270  TIP3      H1             -9.8131003985       26.1225442534      -22.4501746635  SOLV      1259            0.0000000000
      3891      1270  TIP3      H2            -10.9267603985       25.3268142534      -21.8032846635  SOLV      1259            0.0000000000
      3892      1271  TIP3      OH2           -15.4466703985       20.9221842534      -24.6179446635  SOLV      1260            0.0000000000
      3893      1271  TIP3      H1            -15.2965803985       20.1933142534      -25.2199746635  SOLV      1260            0.0000000000
      3894      1271  TIP3      H2            -15.4444303985       21.6993542534      -25.1767246635  SOLV      1260            0.0000000000
      3895      1272  TIP3      OH2           -15.0341003985       19.2917642534      -27.1252046635  SOLV      1261            0.0000000000
      3896      1272  TIP3      H1            -14.4983503985       19.7434342534      -27.7772746635  SOLV      1261            0.0000000000
      3897      1272  TIP3      H2            -15.8861403985       19.1837442534      -27.5477946635  SOLV      1261            0.0000000000
      3898      1273  TIP3      OH2           -13.4522603985       24.7313842534      -26.8856846635  SOLV      1262            0.0000000000
      3899      1273  TIP3      H1            -12.7017803985       24.5751342534      -27.4589046635  SOLV      1262            0.0000000000
      3900      1273  TIP3      H2            -13.7914303985       25.5830442534      -27.1611346635  SOLV      1262            0.0000000000
      3901      1274  TIP3      OH2            -9.0366403985       22.5465642534      -21.8571546635  SOLV      1263            0.0000000000
      3902      1274  TIP3      H1             -8.8445103985       21.6155042534      -21.9687046635  SOLV      1263            0.0000000000
      3903      1274  TIP3      H2             -8.1790103985       22.9715142534      -21.8676146635  SOLV      1263            0.0000000000
      3904      1275  TIP3      OH2            -7.7199203985       25.3350842534      -23.7798846635  SOLV      1264            0.0000000000
      3905      1275  TIP3      H1             -8.0014203985       26.0445442534      -24.3575046635  SOLV      1264            0.0000000000
      3906      1275  TIP3      H2             -6.7774903985       25.2623842534      -23.9307646635  SOLV      1264            0.0000000000
      3907      1276  TIP3      OH2           -16.9680403985       22.1205342534      -22.7063846635  SOLV      1265            0.0000000000
      3908      1276  TIP3      H1            -17.7351403985       21.5880142534      -22.9166246635  SOLV      1265            0.0000000000
      3909      1276  TIP3      H2            -16.2891403985       21.8105742534      -23.3057546635  SOLV      1265            0.0000000000
      3910      1277  TIP3      OH2           -14.2285503985       16.7483342534      -26.6938446635  SOLV      1266            0.0000000000
      3911      1277  TIP3      H1            -14.3265903985       17.6946542534      -26.7992246635  SOLV      1266            0.0000000000
      3912      1277  TIP3      H2            -14.9709303985       16.3757142534      -27.1694946635  SOLV      1266            0.0000000000
      3913      1278  TIP3      OH2           -12.9645003985       21.0698742534      -23.1300046635  SOLV      1267            0.0000000000
      3914      1278  TIP3      H1            -13.1999603985       20.8505442534      -22.2285146635  SOLV      1267            0.0000000000
      3915      1278  TIP3      H2            -13.7478103985       20.8629942534      -23.6397546635  SOLV      1267            0.0000000000
      3916      1279  TIP3      OH2           -10.2488403985       20.1972242534      -24.0546546635  SOLV      1268            0.0000000000
      3917      1279  TIP3      H1            -11.1963003985       20.2291942534      -23.9223246635  SOLV      1268            0.0000000000
      3918      1279  TIP3      H2             -9.9361703985       19.5719342534      -23.4008346635  SOLV      1268            0.0000000000
      3919      1280  TIP3      OH2            -8.6146903985       18.8313342534      -22.0494646635  SOLV      1269            0.0000000000
      3920      1280  TIP3      H1             -8.7115103985       17.8790642534      -22.0552746635  SOLV      1269            0.0000000000
      3921      1280  TIP3      H2             -8.9363803985       19.1000142534      -21.1889146635  SOLV      1269            0.0000000000
      3922      1281  TIP3      OH2           -18.7877603985       20.0409142534      -23.0019146635  SOLV      1270            0.0000000000
      3923      1281  TIP3      H1            -18.5760203985       19.3345242534      -23.6121646635  SOLV      1270            0.0000000000
      3924      1281  TIP3      H2            -18.8990103985       19.6035142534      -22.1577946635  SOLV      1270            0.0000000000
      3925      1282  TIP3      OH2           -14.0067403985       16.0420742534      -24.0225646635  SOLV      1271            0.0000000000
      3926      1282  TIP3      H1            -13.2949003985       15.4022942534      -24.0366546635  SOLV      1271            0.0000000000
      3927      1282  TIP3      H2            -14.1077003985       16.3089042534      -24.9362546635  SOLV      1271            0.0000000000
      3928      1283  TIP3      OH2           -13.6529903985       17.7249142534      -21.9689346635  SOLV      1272            0.0000000000
      3929      1283  TIP3      H1            -13.7847703985       17.2492942534      -22.7890846635  SOLV      1272            0.0000000000
      3930      1283  TIP3      H2            -14.2522503985       18.4692742534      -22.0242246635  SOLV      1272            0.0000000000
      3931      1284  TIP3      OH2            -3.4708103985       33.5275142534      -29.4472346635  SOLV      1273            0.0000000000
      3932      1284  TIP3      H1             -3.4921403985       33.7123542534      -28.5082946635  SOLV      1273            0.0000000000
      3933      1284  TIP3      H2             -2.7801903985       34.0959142534      -29.7880946635  SOLV      1273            0.0000000000
      3934      1285  TIP3      OH2            -3.9075203985       33.0946242534      -26.5253246635  SOLV      1274            0.0000000000
      3935      1285  TIP3      H1             -4.3946503985       32.3590342534      -26.8965846635  SOLV      1274            0.0000000000
      3936      1285  TIP3      H2             -3.3582503985       32.7010142534      -25.8473846635  SOLV      1274            0.0000000000
      3937      1286  TIP3      OH2            -5.4567903985       28.8844342534      -21.8872946635  SOLV      1275            0.0000000000
      3938      1286  TIP3      H1             -6.3226803985       28.7794042534      -21.4930646635  SOLV      1275            0.0000000000
      3939      1286  TIP3      H2             -5.0802003985       29.6427642534      -21.4408246635  SOLV      1275            0.0000000000
      3940      1287  TIP3      OH2            -4.1558203985       27.1408042534      -36.3730446635  SOLV      1276            0.0000000000
      3941      1287  TIP3      H1             -3.3056803985       27.5618942534      -36.2458846635  SOLV      1276            0.0000000000
      3942      1287  TIP3      H2             -4.1503103985       26.4008142534      -35.7659046635  SOLV      1276            0.0000000000
      3943      1288  TIP3      OH2            -3.7612603985       25.1945442534      -34.5494746635  SOLV      1277            0.0000000000
      3944      1288  TIP3      H1             -4.4878003985       24.7148042534      -34.1517146635  SOLV      1277            0.0000000000
      3945      1288  TIP3      H2             -3.1799303985       25.4000142534      -33.8173146635  SOLV      1277            0.0000000000
      3946      1289  TIP3      OH2            -4.0021403985       27.9792942534      -29.6017146635  SOLV      1278            0.0000000000
      3947      1289  TIP3      H1             -3.1687203985       27.6012942534      -29.8823546635  SOLV      1278            0.0000000000
      3948      1289  TIP3      H2             -3.8901103985       28.9224142534      -29.7208046635  SOLV      1278            0.0000000000
      3949      1290  TIP3      OH2            -5.5159103985       30.8570442534      -27.2948746635  SOLV      1279            0.0000000000
      3950      1290  TIP3      H1             -6.1633803985       31.1821942534      -26.6693546635  SOLV      1279            0.0000000000
      3951      1290  TIP3      H2             -6.0335103985       30.4168142534      -27.9690446635  SOLV      1279            0.0000000000
      3952      1291  TIP3      OH2            -5.9745803985       23.7151942534      -33.9866046635  SOLV      1280            0.0000000000
      3953      1291  TIP3      H1             -6.1247003985       22.7700542534      -34.0068246635  SOLV      1280            0.0000000000
      3954      1291  TIP3      H2             -6.3281303985       23.9963342534      -33.1426946635  SOLV      1280            0.0000000000
      3955      1292  TIP3      OH2            -5.1182903985       25.6855242534      -24.3477746635  SOLV      1281            0.0000000000
      3956      1292  TIP3      H1             -4.5355603985       24.9507542534      -24.1560546635  SOLV      1281            0.0000000000
      3957      1292  TIP3      H2             -4.5543603985       26.4575542534      -24.3011946635  SOLV      1281            0.0000000000
      3958      1293  TIP3      OH2            -3.6215803985       23.5881042534      -23.6632346635  SOLV      1282            0.0000000000
      3959      1293  TIP3      H1             -4.4849103985       23.2093142534      -23.8287646635  SOLV      1282            0.0000000000
      3960      1293  TIP3      H2             -3.0172103985       22.8495842534      -23.7376546635  SOLV      1282            0.0000000000
      3961      1294  TIP3      OH2            -5.8966703985       19.7429342534      -40.4900846635  SOLV      1283            0.0000000000
      3962      1294  TIP3      H1             -5.2860903985       19.3716142534      -39.8532646635  SOLV      1283            0.0000000000
      3963      1294  TIP3      H2             -6.7335203985       19.3216242534      -40.2940846635  SOLV      1283            0.0000000000
      3964      1295  TIP3      OH2            -6.2641003985       21.2977742534      -35.5240946635  SOLV      1284            0.0000000000
      3965      1295  TIP3      H1             -5.9843903985       20.3908142534      -35.3999246635  SOLV      1284            0.0000000000
      3966      1295  TIP3      H2             -5.5049303985       21.7319242534      -35.9131746635  SOLV      1284            0.0000000000
      3967      1296  TIP3      OH2            -5.6522703985       21.8795142534      -30.0882046635  SOLV      1285            0.0000000000
      3968      1296  TIP3      H1             -4.7194703985       22.0915042534      -30.1226046635  SOLV      1285            0.0000000000
      3969      1296  TIP3      H2             -5.8875203985       21.9807242534      -29.1659046635  SOLV      1285            0.0000000000
      3970      1297  TIP3      OH2            -5.6230803985       22.6160442534      -27.3122646635  SOLV      1286            0.0000000000
      3971      1297  TIP3      H1             -6.4659503985       22.8840842534      -26.9462846635  SOLV      1286            0.0000000000
      3972      1297  TIP3      H2             -5.1806503985       23.4382342534      -27.5231546635  SOLV      1286            0.0000000000
      3973      1298  TIP3      OH2           -21.3418603985       21.0639142534      -23.8353446635  SOLV      1287            0.0000000000
      3974      1298  TIP3      H1            -20.4223703985       20.9417442534      -23.5990346635  SOLV      1287            0.0000000000
      3975      1298  TIP3      H2            -21.7914103985       20.3138842534      -23.4459946635  SOLV      1287            0.0000000000
      3976      1299  TIP3      OH2            -3.3399203985       16.5960642534      -21.9587646635  SOLV      1288            0.0000000000
      3977      1299  TIP3      H1             -2.9902203985       15.9424142534      -22.5642946635  SOLV      1288            0.0000000000
      3978      1299  TIP3      H2             -3.1929703985       17.4334742534      -22.3985046635  SOLV      1288            0.0000000000
      3979      1300  TIP3      OH2            -5.6506203985       18.5607042534      -35.4758946635  SOLV      1289            0.0000000000
      3980      1300  TIP3      H1             -5.4681203985       18.1118542534      -34.6503946635  SOLV      1289            0.0000000000
      3981      1300  TIP3      H2             -6.2503303985       17.9761442534      -35.9394346635  SOLV      1289            0.0000000000
      3982      1301  TIP3      OH2           -20.1206103985       19.3760742534      -30.9440546635  SOLV      1290            0.0000000000
      3983      1301  TIP3      H1            -19.6754503985       18.5843242534      -30.6420846635  SOLV      1290            0.0000000000
      3984      1301  TIP3      H2            -19.6543103985       20.0925942534      -30.5134946635  SOLV      1290            0.0000000000
      3985      1302  TIP3      OH2            -3.8202003985       18.7055242534      -23.6096346635  SOLV      1291            0.0000000000
      3986      1302  TIP3      H1             -4.7376303985       18.9762342534      -23.6452846635  SOLV      1291            0.0000000000
      3987      1302  TIP3      H2             -3.6972603985       18.1703642534      -24.3936646635  SOLV      1291            0.0000000000
      3988      1303  TIP3      OH2            -3.7840003985       18.6285142534      -38.9478646635  SOLV      1292            0.0000000000
      3989      1303  TIP3      H1             -3.3717403985       17.9070842534      -39.4230646635  SOLV      1292            0.0000000000
      3990      1303  TIP3      H2             -3.1023503985       19.2979742534      -38.8894346635  SOLV      1292            0.0000000000
      3991      1304  TIP3      OH2           -21.5393903985       17.3711842534      -27.4765446635  SOLV      1293            0.0000000000
      3992      1304  TIP3      H1            -22.2043403985       17.1252142534      -26.8334546635  SOLV      1293            0.0000000000
      3993      1304  TIP3      H2            -21.9822603985       17.9932242534      -28.0537446635  SOLV      1293            0.0000000000
      3994      1305  TIP3      OH2           -19.3474603985       30.5465942534      -23.3319646635  SOLV      1294            0.0000000000
      3995      1305  TIP3      H1            -20.1682103985       30.7212442534      -23.7924946635  SOLV      1294            0.0000000000
      3996      1305  TIP3      H2            -19.5996803985       30.4730642534      -22.4115246635  SOLV      1294            0.0000000000
      3997      1306  TIP3      OH2           -12.0820303985       32.9197142534      -24.1141946635  SOLV      1295            0.0000000000
      3998      1306  TIP3      H1            -11.8972803985       32.5863242534      -23.2361646635  SOLV      1295            0.0000000000
      3999      1306  TIP3      H2            -11.2355803985       33.2295742534      -24.4362746635  SOLV      1295            0.0000000000
      4000      1307  TIP3      OH2            -9.7369903985       34.2056042534      -24.8700546635  SOLV      1296            0.0000000000
      4001      1307  TIP3      H1             -9.0601003985       33.5728342534      -25.1101346635  SOLV      1296            0.0000000000
      4002      1307  TIP3      H2             -9.4151103985       34.6066542534      -24.0627246635  SOLV      1296            0.0000000000
      4003      1308  TIP3      OH2            -4.8196103985       16.7951542534      -25.7905546635  SOLV      1297            0.0000000000
      4004      1308  TIP3      H1             -5.6322603985       17.1201842534      -26.1780846635  SOLV      1297            0.0000000000
      4005      1308  TIP3      H2             -4.5867603985       16.0350042534      -26.3236446635  SOLV      1297            0.0000000000
      4006      1309  TIP3      OH2           -11.3897603985       18.2442142534      -31.4677346635  SOLV      1298            0.0000000000
      4007      1309  TIP3      H1            -12.0640803985       17.6147742534      -31.2121546635  SOLV      1298            0.0000000000
      4008      1309  TIP3      H2            -10.8258403985       17.7601042534      -32.0709446635  SOLV      1298            0.0000000000
      4009      1310  TIP3      OH2            -6.2470403985       16.3516142534      -31.3550246635  SOLV      1299            0.0000000000
      4010      1310  TIP3      H1             -5.6432803985       16.8991542534      -31.8569246635  SOLV      1299            0.0000000000
      4011      1310  TIP3      H2             -7.1168403985       16.6706542534      -31.5956146635  SOLV      1299            0.0000000000
      4012      1311  TIP3      OH2            -4.5200003985       17.4904842534      -33.0219346635  SOLV      1300            0.0000000000
      4013      1311  TIP3      H1             -3.9082503985       16.9760542534      -33.5485746635  SOLV      1300            0.0000000000
      4014      1311  TIP3      H2             -4.1376603985       18.3676942534      -32.9984946635  SOLV      1300            0.0000000000
      4015      1312  TIP3      OH2           -19.0630103985       16.8782442534      -33.6457446635  SOLV      1301            0.0000000000
      4016      1312  TIP3      H1            -19.8400303985       16.6437342534      -34.1531546635  SOLV      1301            0.0000000000
      4017      1312  TIP3      H2            -18.5326503985       16.0814542534      -33.6369446635  SOLV      1301            0.0000000000
      4018      1313  TIP3      OH2           -14.4837503985       16.8049542534      -33.8324346635  SOLV      1302            0.0000000000
      4019      1313  TIP3      H1            -13.6094103985       17.1933842534      -33.8620046635  SOLV      1302            0.0000000000
      4020      1313  TIP3      H2            -14.6196703985       16.5897342534      -32.9097146635  SOLV      1302            0.0000000000
      4021      1314  TIP3      OH2            -8.9269103985       16.8349342534      -32.1832646635  SOLV      1303            0.0000000000
      4022      1314  TIP3      H1             -8.8507503985       16.9300942534      -33.1326646635  SOLV      1303            0.0000000000
      4023      1314  TIP3      H2             -9.2019903985       15.9272242534      -32.0543546635  SOLV      1303            0.0000000000
      4024      1315  TIP3      OH2            -7.5736503985       16.8607142534      -36.4907646635  SOLV      1304            0.0000000000
      4025      1315  TIP3      H1             -8.2765403985       17.4756342534      -36.7006246635  SOLV      1304            0.0000000000
      4026      1315  TIP3      H2             -8.0185103985       16.0233842534      -36.3596746635  SOLV      1304            0.0000000000
      4027      1316  TIP3      OH2           -13.3397503985       18.8853542534      -36.9426746635  SOLV      1305            0.0000000000
      4028      1316  TIP3      H1            -13.1616203985       18.2386742534      -36.2598146635  SOLV      1305            0.0000000000
      4029      1316  TIP3      H2            -13.3931303985       19.7191242534      -36.4755646635  SOLV      1305            0.0000000000
      4030      1317  TIP3      OH2           -19.1052103985       17.3924342534      -24.1281246635  SOLV      1306            0.0000000000
      4031      1317  TIP3      H1            -19.4713903985       16.6266942534      -23.6856546635  SOLV      1306            0.0000000000
      4032      1317  TIP3      H2            -18.1923603985       17.4214542534      -23.8416146635  SOLV      1306            0.0000000000
      4033      1318  TIP3      OH2           -17.1321303985       16.7428742534      -22.5924146635  SOLV      1307            0.0000000000
      4034      1318  TIP3      H1            -16.2337703985       16.4688942534      -22.7770746635  SOLV      1307            0.0000000000
      4035      1318  TIP3      H2            -17.5188203985       16.0004742534      -22.1281546635  SOLV      1307            0.0000000000
      4036      1319  TIP3      OH2            -8.7109003985       16.0754042534      -22.4101346635  SOLV      1308            0.0000000000
      4037      1319  TIP3      H1             -8.6341803985       15.6494742534      -21.5563646635  SOLV      1308            0.0000000000
      4038      1319  TIP3      H2             -7.8172403985       16.0888742534      -22.7527846635  SOLV      1308            0.0000000000
      4039      1320  TIP3      OH2            -5.5347903985       32.1480342534      -23.7177146635  SOLV      1309            0.0000000000
      4040      1320  TIP3      H1             -6.3166003985       31.9618342534      -24.2376546635  SOLV      1309            0.0000000000
      4041      1320  TIP3      H2             -5.6068003985       33.0774642534      -23.5004646635  SOLV      1309            0.0000000000
      4042      1321  TIP3      OH2             7.8043796015       25.2895442534      -30.2681746635  SOLV      1310            0.0000000000
      4043      1321  TIP3      H1              7.7661296015       24.6431742534      -29.5632146635  SOLV      1310            0.0000000000
      4044      1321  TIP3      H2              7.4820296015       24.8229842534      -31.0393046635  SOLV      1310            0.0000000000
      4045      1322  TIP3      OH2             0.1728796015       24.9037542534      -28.6751846635  SOLV      1311            0.0000000000
      4046      1322  TIP3      H1              0.2140896015       24.2780842534      -27.9519446635  SOLV      1311            0.0000000000
      4047      1322  TIP3      H2              0.8756496015       25.5276142534      -28.4931446635  SOLV      1311            0.0000000000
      4048      1323  TIP3      OH2             1.0961896015       29.3536442534      -30.1402746635  SOLV      1312            0.0000000000
      4049      1323  TIP3      H1              0.7267096015       28.5516942534      -30.5098446635  SOLV      1312            0.0000000000
      4050      1323  TIP3      H2              2.0372996015       29.1851342534      -30.0939346635  SOLV      1312            0.0000000000
      4051      1324  TIP3      OH2            -2.2937603985       23.0139042534      -34.7473946635  SOLV      1313            0.0000000000
      4052      1324  TIP3      H1             -2.7414203985       23.8597742534      -34.7657446635  SOLV      1313            0.0000000000
      4053      1324  TIP3      H2             -2.8546403985       22.4343242534      -35.2628846635  SOLV      1313            0.0000000000
      4054      1325  TIP3      OH2            -1.5831503985       25.1758642534      -32.6215946635  SOLV      1314            0.0000000000
      4055      1325  TIP3      H1             -1.3698003985       24.4060242534      -32.0942946635  SOLV      1314            0.0000000000
      4056      1325  TIP3      H2             -0.8453903985       25.2655342534      -33.2248346635  SOLV      1314            0.0000000000
      4057      1326  TIP3      OH2             6.1938196015       27.7216842534      -29.8620746635  SOLV      1315            0.0000000000
      4058      1326  TIP3      H1              6.4976096015       27.0358242534      -30.4566646635  SOLV      1315            0.0000000000
      4059      1326  TIP3      H2              6.9152196015       27.8405542534      -29.2442746635  SOLV      1315            0.0000000000
      4060      1327  TIP3      OH2             9.3345196015       22.1159242534      -29.5345946635  SOLV      1316            0.0000000000
      4061      1327  TIP3      H1              9.4771096015       21.1696242534      -29.5144346635  SOLV      1316            0.0000000000
      4062      1327  TIP3      H2              9.2284196015       22.3229042534      -30.4631046635  SOLV      1316            0.0000000000
      4063      1328  TIP3      OH2             2.4893496015       20.2175642534      -32.2621146635  SOLV      1317            0.0000000000
      4064      1328  TIP3      H1              2.5324596015       21.0774142534      -32.6804846635  SOLV      1317            0.0000000000
      4065      1328  TIP3      H2              2.0317596015       19.6650342534      -32.8957946635  SOLV      1317            0.0000000000
      4066      1329  TIP3      OH2            -0.8905003985       22.6141442534      -31.4999746635  SOLV      1318            0.0000000000
      4067      1329  TIP3      H1             -0.2368403985       22.0643142534      -31.0679646635  SOLV      1318            0.0000000000
      4068      1329  TIP3      H2             -0.8665703985       22.3400442534      -32.4167746635  SOLV      1318            0.0000000000
      4069      1330  TIP3      OH2             4.2659496015       24.1642742534      -32.2848246635  SOLV      1319            0.0000000000
      4070      1330  TIP3      H1              4.8820496015       23.6378142534      -31.7754246635  SOLV      1319            0.0000000000
      4071      1330  TIP3      H2              3.6798296015       23.5241442534      -32.6884646635  SOLV      1319            0.0000000000
      4072      1331  TIP3      OH2            15.2482596015       20.8011342534      -26.7654746635  SOLV      1320            0.0000000000
      4073      1331  TIP3      H1             14.5597196015       21.4592042534      -26.8608146635  SOLV      1320            0.0000000000
      4074      1331  TIP3      H2             15.2637196015       20.6039242534      -25.8289346635  SOLV      1320            0.0000000000
      4075      1332  TIP3      OH2             1.2995396015       19.1354042534      -28.1880346635  SOLV      1321            0.0000000000
      4076      1332  TIP3      H1              1.0807096015       19.6654642534      -28.9544346635  SOLV      1321            0.0000000000
      4077      1332  TIP3      H2              0.6316296015       19.3619542534      -27.5408946635  SOLV      1321            0.0000000000
      4078      1333  TIP3      OH2             3.8686796015       26.8109742534      -27.9006646635  SOLV      1322            0.0000000000
      4079      1333  TIP3      H1              3.1285896015       27.4091242534      -27.7971446635  SOLV      1322            0.0000000000
      4080      1333  TIP3      H2              4.5826296015       27.3649342534      -28.2163046635  SOLV      1322            0.0000000000
      4081      1334  TIP3      OH2             0.8932696015       21.0275842534      -30.2358146635  SOLV      1323            0.0000000000
      4082      1334  TIP3      H1              1.5068996015       21.6603442534      -29.8625746635  SOLV      1323            0.0000000000
      4083      1334  TIP3      H2              1.4053396015       20.5550842534      -30.8921246635  SOLV      1323            0.0000000000
      4084      1335  TIP3      OH2             2.2761096015       28.7752742534      -27.1135146635  SOLV      1324            0.0000000000
      4085      1335  TIP3      H1              2.2708696015       29.6546242534      -27.4915846635  SOLV      1324            0.0000000000
      4086      1335  TIP3      H2              1.4225196015       28.6916842534      -26.6885246635  SOLV      1324            0.0000000000
      4087      1336  TIP3      OH2            12.3228696015       18.3541842534      -28.2013446635  SOLV      1325            0.0000000000
      4088      1336  TIP3      H1             11.5867896015       18.9648942534      -28.2392146635  SOLV      1325            0.0000000000
      4089      1336  TIP3      H2             13.0062696015       18.7690842534      -28.7277046635  SOLV      1325            0.0000000000
      4090      1337  TIP3      OH2             5.3260096015       16.4409142534      -30.7355446635  SOLV      1326            0.0000000000
      4091      1337  TIP3      H1              5.2084296015       15.4925142534      -30.7897146635  SOLV      1326            0.0000000000
      4092      1337  TIP3      H2              4.4710196015       16.7735242534      -30.4624346635  SOLV      1326            0.0000000000
      4093      1338  TIP3      OH2            10.8956196015       23.6620642534      -26.2156746635  SOLV      1327            0.0000000000
      4094      1338  TIP3      H1             10.9755296015       24.4255042534      -25.6438246635  SOLV      1327            0.0000000000
      4095      1338  TIP3      H2             10.2943896015       23.9413042534      -26.9061646635  SOLV      1327            0.0000000000
      4096      1339  TIP3      OH2             4.0103896015       29.5464842534      -30.7196546635  SOLV      1328            0.0000000000
      4097      1339  TIP3      H1              3.9155196015       28.9677942534      -31.4761946635  SOLV      1328            0.0000000000
      4098      1339  TIP3      H2              4.7397496015       29.1750542534      -30.2233746635  SOLV      1328            0.0000000000
      4099      1340  TIP3      OH2             3.0101896015       24.8869842534      -29.7673746635  SOLV      1329            0.0000000000
      4100      1340  TIP3      H1              3.5754396015       25.0084042534      -30.5302546635  SOLV      1329            0.0000000000
      4101      1340  TIP3      H2              3.3290796015       25.5244842534      -29.1285246635  SOLV      1329            0.0000000000
      4102      1341  TIP3      OH2             3.8902596015       29.2862542534      -25.0501846635  SOLV      1330            0.0000000000
      4103      1341  TIP3      H1              3.5790096015       30.0685742534      -24.5948646635  SOLV      1330            0.0000000000
      4104      1341  TIP3      H2              3.2402796015       29.1331642534      -25.7359846635  SOLV      1330            0.0000000000
      4105      1342  TIP3      OH2             0.8102496015       25.4843642534      -25.8216146635  SOLV      1331            0.0000000000
      4106      1342  TIP3      H1              0.8805696015       26.1350442534      -25.1231146635  SOLV      1331            0.0000000000
      4107      1342  TIP3      H2             -0.0805303985       25.5871142534      -26.1565246635  SOLV      1331            0.0000000000
      4108      1343  TIP3      OH2             2.1298496015       31.3577542534      -24.2868046635  SOLV      1332            0.0000000000
      4109      1343  TIP3      H1              2.1373796015       31.2217242534      -25.2342546635  SOLV      1332            0.0000000000
      4110      1343  TIP3      H2              1.2138896015       31.2405642534      -24.0348046635  SOLV      1332            0.0000000000
      4111      1344  TIP3      OH2            -2.2730803985       27.5507742534      -26.9966146635  SOLV      1333            0.0000000000
      4112      1344  TIP3      H1             -2.7742403985       27.5227142534      -27.8116446635  SOLV      1333            0.0000000000
      4113      1344  TIP3      H2             -2.2677103985       26.6450942534      -26.6868846635  SOLV      1333            0.0000000000
      4114      1345  TIP3      OH2            -2.5228103985       30.3311542534      -30.1125946635  SOLV      1334            0.0000000000
      4115      1345  TIP3      H1             -1.5767503985       30.1868542534      -30.1316446635  SOLV      1334            0.0000000000
      4116      1345  TIP3      H2             -2.6351803985       31.1154342534      -29.5754746635  SOLV      1334            0.0000000000
      4117      1346  TIP3      OH2             6.6534396015       30.5710442534      -25.5540846635  SOLV      1335            0.0000000000
      4118      1346  TIP3      H1              6.7408996015       31.3975042534      -25.0791746635  SOLV      1335            0.0000000000
      4119      1346  TIP3      H2              5.7899496015       30.2414242534      -25.3051546635  SOLV      1335            0.0000000000
      4120      1347  TIP3      OH2            12.8270196015       22.4903742534      -23.9500046635  SOLV      1336            0.0000000000
      4121      1347  TIP3      H1             12.4196996015       22.9709342534      -24.6706746635  SOLV      1336            0.0000000000
      4122      1347  TIP3      H2             12.8675896015       21.5849742534      -24.2579246635  SOLV      1336            0.0000000000
      4123      1348  TIP3      OH2            -0.0240303985       28.8743142534      -25.9533346635  SOLV      1337            0.0000000000
      4124      1348  TIP3      H1              0.1920996015       28.5128742534      -25.0937546635  SOLV      1337            0.0000000000
      4125      1348  TIP3      H2             -0.8795603985       28.4996942534      -26.1629846635  SOLV      1337            0.0000000000
      4126      1349  TIP3      OH2             2.5947696015       17.3443642534      -29.9579146635  SOLV      1338            0.0000000000
      4127      1349  TIP3      H1              1.7331396015       17.2571842534      -30.3656246635  SOLV      1338            0.0000000000
      4128      1349  TIP3      H2              2.5723396015       18.2003742534      -29.5301546635  SOLV      1338            0.0000000000
      4129      1350  TIP3      OH2             7.2575496015       17.0664042534      -26.5832146635  SOLV      1339            0.0000000000
      4130      1350  TIP3      H1              7.6778596015       16.6511142534      -25.8301546635  SOLV      1339            0.0000000000
      4131      1350  TIP3      H2              6.3245096015       16.8877342534      -26.4660146635  SOLV      1339            0.0000000000
      4132      1351  TIP3      OH2            10.5840396015       20.8219242534      -25.7297646635  SOLV      1340            0.0000000000
      4133      1351  TIP3      H1             10.0699896015       20.6961442534      -24.9321646635  SOLV      1340            0.0000000000
      4134      1351  TIP3      H2             10.4285096015       21.7342342534      -25.9741446635  SOLV      1340            0.0000000000
      4135      1352  TIP3      OH2             2.6857796015       22.3098142534      -28.8628946635  SOLV      1341            0.0000000000
      4136      1352  TIP3      H1              2.0439896015       22.2695442534      -28.1538846635  SOLV      1341            0.0000000000
      4137      1352  TIP3      H2              2.7229796015       23.2362842534      -29.1005946635  SOLV      1341            0.0000000000
      4138      1353  TIP3      OH2             2.6826896015       22.5308242534      -33.9508946635  SOLV      1342            0.0000000000
      4139      1353  TIP3      H1              1.7899796015       22.1904342534      -34.0095146635  SOLV      1342            0.0000000000
      4140      1353  TIP3      H2              3.1333496015       22.1539142534      -34.7065746635  SOLV      1342            0.0000000000
      4141      1354  TIP3      OH2             7.3203996015       23.1224942534      -23.6457446635  SOLV      1343            0.0000000000
      4142      1354  TIP3      H1              6.7577796015       22.4176542534      -23.3249646635  SOLV      1343            0.0000000000
      4143      1354  TIP3      H2              8.1467396015       23.0016842534      -23.1779846635  SOLV      1343            0.0000000000
      4144      1355  TIP3      OH2             0.4358296015       22.6301642534      -26.9956946635  SOLV      1344            0.0000000000
      4145      1355  TIP3      H1              0.3977696015       23.0303242534      -26.1269846635  SOLV      1344            0.0000000000
      4146      1355  TIP3      H2             -0.0550603985       21.8134042534      -26.9054046635  SOLV      1344            0.0000000000
      4147      1356  TIP3      OH2            -2.9560903985       19.7463442534      -33.1452246635  SOLV      1345            0.0000000000
      4148      1356  TIP3      H1             -2.3253203985       19.7175542534      -32.4258346635  SOLV      1345            0.0000000000
      4149      1356  TIP3      H2             -2.5066603985       19.3212142534      -33.8756346635  SOLV      1345            0.0000000000
      4150      1357  TIP3      OH2             8.4869296015       24.0310242534      -27.6486046635  SOLV      1346            0.0000000000
      4151      1357  TIP3      H1              8.8104096015       23.3999942534      -28.2915546635  SOLV      1346            0.0000000000
      4152      1357  TIP3      H2              8.0468596015       23.4962442534      -26.9878646635  SOLV      1346            0.0000000000
      4153      1358  TIP3      OH2             5.2642196015       19.9585742534      -32.8644846635  SOLV      1347            0.0000000000
      4154      1358  TIP3      H1              4.3533296015       20.0152542534      -32.5758846635  SOLV      1347            0.0000000000
      4155      1358  TIP3      H2              5.7695096015       19.8981242534      -32.0537646635  SOLV      1347            0.0000000000
      4156      1359  TIP3      OH2             0.0925596015       21.5872042534      -34.0377246635  SOLV      1348            0.0000000000
      4157      1359  TIP3      H1             -0.7966403985       21.6867542534      -34.3777646635  SOLV      1348            0.0000000000
      4158      1359  TIP3      H2              0.3890496015       20.7455042534      -34.3839346635  SOLV      1348            0.0000000000
      4159      1360  TIP3      OH2             9.6694096015       19.1932042534      -29.6003046635  SOLV      1349            0.0000000000
      4160      1360  TIP3      H1              8.9925696015       19.3245142534      -28.9363346635  SOLV      1349            0.0000000000
      4161      1360  TIP3      H2              9.1838996015       19.0381542534      -30.4105346635  SOLV      1349            0.0000000000
      4162      1361  TIP3      OH2             0.5548996015       27.3388742534      -23.7154946635  SOLV      1350            0.0000000000
      4163      1361  TIP3      H1              1.2871396015       27.5934642534      -23.1540446635  SOLV      1350            0.0000000000
      4164      1361  TIP3      H2             -0.2252303985       27.5434142534      -23.1999546635  SOLV      1350            0.0000000000
      4165      1362  TIP3      OH2             6.5841896015       22.7458742534      -30.9775246635  SOLV      1351            0.0000000000
      4166      1362  TIP3      H1              7.1485296015       22.1995342534      -31.5245646635  SOLV      1351            0.0000000000
      4167      1362  TIP3      H2              6.4365296015       22.2240642534      -30.1887646635  SOLV      1351            0.0000000000
      4168      1363  TIP3      OH2             1.5861596015       18.8824842534      -34.5590446635  SOLV      1352            0.0000000000
      4169      1363  TIP3      H1              1.2691096015       17.9800142534      -34.5945046635  SOLV      1352            0.0000000000
      4170      1363  TIP3      H2              2.3675696015       18.8842242534      -35.1118846635  SOLV      1352            0.0000000000
      4171      1364  TIP3      OH2             5.2107796015       21.1344842534      -28.5634846635  SOLV      1353            0.0000000000
      4172      1364  TIP3      H1              4.3753096015       21.5884342534      -28.4532446635  SOLV      1353            0.0000000000
      4173      1364  TIP3      H2              5.7348396015       21.4103342534      -27.8114946635  SOLV      1353            0.0000000000
      4174      1365  TIP3      OH2             7.2742496015       27.5315842534      -25.6419346635  SOLV      1354            0.0000000000
      4175      1365  TIP3      H1              6.9288596015       27.1498242534      -24.8349746635  SOLV      1354            0.0000000000
      4176      1365  TIP3      H2              7.0742596015       28.4649442534      -25.5706446635  SOLV      1354            0.0000000000
      4177      1366  TIP3      OH2             0.8798696015       26.6422542534      -31.1090546635  SOLV      1355            0.0000000000
      4178      1366  TIP3      H1              1.6245896015       26.6398242534      -31.7104046635  SOLV      1355            0.0000000000
      4179      1366  TIP3      H2              0.9575296015       25.8186342534      -30.6275446635  SOLV      1355            0.0000000000
      4180      1367  TIP3      OH2            -2.1121603985       25.1029442534      -25.7942046635  SOLV      1356            0.0000000000
      4181      1367  TIP3      H1             -1.8893003985       24.6849042534      -24.9624546635  SOLV      1356            0.0000000000
      4182      1367  TIP3      H2             -2.7141503985       24.4904442534      -26.2169246635  SOLV      1356            0.0000000000
      4183      1368  TIP3      OH2             4.9043296015       24.6199342534      -23.5812346635  SOLV      1357            0.0000000000
      4184      1368  TIP3      H1              4.6084096015       24.4542342534      -24.4763246635  SOLV      1357            0.0000000000
      4185      1368  TIP3      H2              5.8358496015       24.3999642534      -23.5918446635  SOLV      1357            0.0000000000
      4186      1369  TIP3      OH2             9.5246096015       29.9931342534      -25.6914346635  SOLV      1358            0.0000000000
      4187      1369  TIP3      H1              8.6240396015       30.1763942534      -25.9590446635  SOLV      1358            0.0000000000
      4188      1369  TIP3      H2              9.5587196015       30.2520642534      -24.7705546635  SOLV      1358            0.0000000000
      4189      1370  TIP3      OH2            15.2191396015       28.0380942534      -24.4870246635  SOLV      1359            0.0000000000
      4190      1370  TIP3      H1             14.3679896015       28.2764742534      -24.8543846635  SOLV      1359            0.0000000000
      4191      1370  TIP3      H2             15.8094796015       28.0214142534      -25.2403146635  SOLV      1359            0.0000000000
      4192      1371  TIP3      OH2             5.1966996015       31.9724242534      -27.8133646635  SOLV      1360            0.0000000000
      4193      1371  TIP3      H1              5.5591696015       32.8269842534      -28.0469246635  SOLV      1360            0.0000000000
      4194      1371  TIP3      H2              5.7282196015       31.6805842534      -27.0727346635  SOLV      1360            0.0000000000
      4195      1372  TIP3      OH2             8.7407796015       28.0714942534      -28.1128046635  SOLV      1361            0.0000000000
      4196      1372  TIP3      H1              8.3149096015       27.8436642534      -27.2864046635  SOLV      1361            0.0000000000
      4197      1372  TIP3      H2              9.3213596015       27.3326742534      -28.2952746635  SOLV      1361            0.0000000000
      4198      1373  TIP3      OH2            -0.4782103985       19.8562142534      -26.2360646635  SOLV      1362            0.0000000000
      4199      1373  TIP3      H1             -1.3709803985       20.1947542534      -26.3036646635  SOLV      1362            0.0000000000
      4200      1373  TIP3      H2             -0.5769303985       19.0008242534      -25.8179846635  SOLV      1362            0.0000000000
      4201      1374  TIP3      OH2            -0.8270103985       31.6606542534      -27.8011246635  SOLV      1363            0.0000000000
      4202      1374  TIP3      H1             -0.6099803985       30.7288942534      -27.8321546635  SOLV      1363            0.0000000000
      4203      1374  TIP3      H2             -0.5806603985       31.9351542534      -26.9178446635  SOLV      1363            0.0000000000
      4204      1375  TIP3      OH2             8.2561296015       19.5972442534      -27.3462046635  SOLV      1364            0.0000000000
      4205      1375  TIP3      H1              8.9549196015       19.6711142534      -26.6962346635  SOLV      1364            0.0000000000
      4206      1375  TIP3      H2              7.8752696015       18.7327442534      -27.1919146635  SOLV      1364            0.0000000000
      4207      1376  TIP3      OH2             6.7762496015       21.9635642534      -26.2294746635  SOLV      1365            0.0000000000
      4208      1376  TIP3      H1              6.8952796015       22.5371042534      -25.4724346635  SOLV      1365            0.0000000000
      4209      1376  TIP3      H2              7.4317096015       21.2755042534      -26.1146946635  SOLV      1365            0.0000000000
      4210      1377  TIP3      OH2            12.9808296015       19.8705942534      -25.3945046635  SOLV      1366            0.0000000000
      4211      1377  TIP3      H1             12.0644096015       20.1327642534      -25.4821346635  SOLV      1366            0.0000000000
      4212      1377  TIP3      H2             13.3163296015       19.8674942534      -26.2909746635  SOLV      1366            0.0000000000
      4213      1378  TIP3      OH2             0.1646296015       16.9947142534      -30.9392846635  SOLV      1367            0.0000000000
      4214      1378  TIP3      H1             -0.0643903985       17.0539642534      -31.8667846635  SOLV      1367            0.0000000000
      4215      1378  TIP3      H2             -0.2780303985       16.2032642534      -30.6328746635  SOLV      1367            0.0000000000
      4216      1379  TIP3      OH2            -1.6166703985       33.5477942534      -23.4489046635  SOLV      1368            0.0000000000
      4217      1379  TIP3      H1             -1.0764503985       33.3311942534      -22.6889846635  SOLV      1368            0.0000000000
      4218      1379  TIP3      H2             -2.0978703985       32.7423942534      -23.6386546635  SOLV      1368            0.0000000000
      4219      1380  TIP3      OH2             2.9806696015       32.4672342534      -21.8284846635  SOLV      1369            0.0000000000
      4220      1380  TIP3      H1              3.7483896015       32.0083142534      -21.4875646635  SOLV      1369            0.0000000000
      4221      1380  TIP3      H2              2.9592896015       32.2412142534      -22.7583646635  SOLV      1369            0.0000000000
      4222      1381  TIP3      OH2             9.5575396015       30.8473442534      -23.0993346635  SOLV      1370            0.0000000000
      4223      1381  TIP3      H1              9.2064896015       29.9906442534      -22.8562946635  SOLV      1370            0.0000000000
      4224      1381  TIP3      H2             10.2838596015       30.9900142534      -22.4924346635  SOLV      1370            0.0000000000
      4225      1382  TIP3      OH2            -1.7097203985       27.3582042534      -22.4944746635  SOLV      1371            0.0000000000
      4226      1382  TIP3      H1             -1.5656703985       26.4562742534      -22.7808046635  SOLV      1371            0.0000000000
      4227      1382  TIP3      H2             -2.4819803985       27.6444142534      -22.9822446635  SOLV      1371            0.0000000000
      4228      1383  TIP3      OH2             4.9458896015       27.3280142534      -23.0618346635  SOLV      1372            0.0000000000
      4229      1383  TIP3      H1              4.6172696015       27.5988242534      -23.9190946635  SOLV      1372            0.0000000000
      4230      1383  TIP3      H2              5.0977096015       26.3869942534      -23.1493346635  SOLV      1372            0.0000000000
      4231      1384  TIP3      OH2            10.6804096015       27.2437442534      -25.6786046635  SOLV      1373            0.0000000000
      4232      1384  TIP3      H1             11.4258896015       27.8321142534      -25.7982046635  SOLV      1373            0.0000000000
      4233      1384  TIP3      H2              9.9230896015       27.8257142534      -25.6152946635  SOLV      1373            0.0000000000
      4234      1385  TIP3      OH2            -0.8770703985       24.5585342534      -23.0745446635  SOLV      1374            0.0000000000
      4235      1385  TIP3      H1             -0.4689503985       23.7011942534      -23.1954846635  SOLV      1374            0.0000000000
      4236      1385  TIP3      H2             -1.1373103985       24.5726642534      -22.1535146635  SOLV      1374            0.0000000000
      4237      1386  TIP3      OH2             3.0699596015       23.5671042534      -25.7002546635  SOLV      1375            0.0000000000
      4238      1386  TIP3      H1              2.4515696015       24.2417642534      -25.4197846635  SOLV      1375            0.0000000000
      4239      1386  TIP3      H2              3.4140796015       23.8884942534      -26.5336346635  SOLV      1375            0.0000000000
      4240      1387  TIP3      OH2             8.0897796015       26.0386342534      -22.4227746635  SOLV      1376            0.0000000000
      4241      1387  TIP3      H1              9.0428996015       26.1225442534      -22.4501746635  SOLV      1376            0.0000000000
      4242      1387  TIP3      H2              7.9292396015       25.3268142534      -21.8032846635  SOLV      1376            0.0000000000
      4243      1388  TIP3      OH2             3.4093296015       20.9221842534      -24.6179446635  SOLV      1377            0.0000000000
      4244      1388  TIP3      H1              3.5594196015       20.1933142534      -25.2199746635  SOLV      1377            0.0000000000
      4245      1388  TIP3      H2              3.4115696015       21.6993542534      -25.1767246635  SOLV      1377            0.0000000000
      4246      1389  TIP3      OH2             3.8218996015       19.2917642534      -27.1252046635  SOLV      1378            0.0000000000
      4247      1389  TIP3      H1              4.3576496015       19.7434342534      -27.7772746635  SOLV      1378            0.0000000000
      4248      1389  TIP3      H2              2.9698596015       19.1837442534      -27.5477946635  SOLV      1378            0.0000000000
      4249      1390  TIP3      OH2             5.4037396015       24.7313842534      -26.8856846635  SOLV      1379            0.0000000000
      4250      1390  TIP3      H1              6.1542196015       24.5751342534      -27.4589046635  SOLV      1379            0.0000000000
      4251      1390  TIP3      H2              5.0645696015       25.5830442534      -27.1611346635  SOLV      1379            0.0000000000
      4252      1391  TIP3      OH2             9.8193596015       22.5465642534      -21.8571546635  SOLV      1380            0.0000000000
      4253      1391  TIP3      H1             10.0114896015       21.6155042534      -21.9687046635  SOLV      1380            0.0000000000
      4254      1391  TIP3      H2             10.6769896015       22.9715142534      -21.8676146635  SOLV      1380            0.0000000000
      4255      1392  TIP3      OH2            11.1360796015       25.3350842534      -23.7798846635  SOLV      1381            0.0000000000
      4256      1392  TIP3      H1             10.8545796015       26.0445442534      -24.3575046635  SOLV      1381            0.0000000000
      4257      1392  TIP3      H2             12.0785096015       25.2623842534      -23.9307646635  SOLV      1381            0.0000000000
      4258      1393  TIP3      OH2             1.8879596015       22.1205342534      -22.7063846635  SOLV      1382            0.0000000000
      4259      1393  TIP3      H1              1.1208596015       21.5880142534      -22.9166246635  SOLV      1382            0.0000000000
      4260      1393  TIP3      H2              2.5668596015       21.8105742534      -23.3057546635  SOLV      1382            0.0000000000
      4261      1394  TIP3      OH2             4.6274496015       16.7483342534      -26.6938446635  SOLV      1383            0.0000000000
      4262      1394  TIP3      H1              4.5294096015       17.6946542534      -26.7992246635  SOLV      1383            0.0000000000
      4263      1394  TIP3      H2              3.8850696015       16.3757142534      -27.1694946635  SOLV      1383            0.0000000000
      4264      1395  TIP3      OH2             5.8914996015       21.0698742534      -23.1300046635  SOLV      1384            0.0000000000
      4265      1395  TIP3      H1              5.6560396015       20.8505442534      -22.2285146635  SOLV      1384            0.0000000000
      4266      1395  TIP3      H2              5.1081896015       20.8629942534      -23.6397546635  SOLV      1384            0.0000000000
      4267      1396  TIP3      OH2             8.6071596015       20.1972242534      -24.0546546635  SOLV      1385            0.0000000000
      4268      1396  TIP3      H1              7.6596996015       20.2291942534      -23.9223246635  SOLV      1385            0.0000000000
      4269      1396  TIP3      H2              8.9198296015       19.5719342534      -23.4008346635  SOLV      1385            0.0000000000
      4270      1397  TIP3      OH2            10.2413096015       18.8313342534      -22.0494646635  SOLV      1386            0.0000000000
      4271      1397  TIP3      H1             10.1444896015       17.8790642534      -22.0552746635  SOLV      1386            0.0000000000
      4272      1397  TIP3      H2              9.9196196015       19.1000142534      -21.1889146635  SOLV      1386            0.0000000000
      4273      1398  TIP3      OH2             0.0682396015       20.0409142534      -23.0019146635  SOLV      1387            0.0000000000
      4274      1398  TIP3      H1              0.2799796015       19.3345242534      -23.6121646635  SOLV      1387            0.0000000000
      4275      1398  TIP3      H2             -0.0430103985       19.6035142534      -22.1577946635  SOLV      1387            0.0000000000
      4276      1399  TIP3      OH2             4.8492596015       16.0420742534      -24.0225646635  SOLV      1388            0.0000000000
      4277      1399  TIP3      H1              5.5610996015       15.4022942534      -24.0366546635  SOLV      1388            0.0000000000
      4278      1399  TIP3      H2              4.7482996015       16.3089042534      -24.9362546635  SOLV      1388            0.0000000000
      4279      1400  TIP3      OH2             5.2030096015       17.7249142534      -21.9689346635  SOLV      1389            0.0000000000
      4280      1400  TIP3      H1              5.0712296015       17.2492942534      -22.7890846635  SOLV      1389            0.0000000000
      4281      1400  TIP3      H2              4.6037496015       18.4692742534      -22.0242246635  SOLV      1389            0.0000000000
      4282      1401  TIP3      OH2            -2.1632903985       32.7178742534      -32.4277146635  SOLV      1390            0.0000000000
      4283      1401  TIP3      H1             -2.4976103985       31.8376042534      -32.2556946635  SOLV      1390            0.0000000000
      4284      1401  TIP3      H2             -1.9410503985       33.0633742534      -31.5631546635  SOLV      1390            0.0000000000
      4285      1402  TIP3      OH2            13.3992096015       28.8844342534      -21.8872946635  SOLV      1391            0.0000000000
      4286      1402  TIP3      H1             12.5333196015       28.7794042534      -21.4930646635  SOLV      1391            0.0000000000
      4287      1402  TIP3      H2             13.7757996015       29.6427642534      -21.4408246635  SOLV      1391            0.0000000000
      4288      1403  TIP3      OH2            -2.0833403985       25.7934142534      -29.9762246635  SOLV      1392            0.0000000000
      4289      1403  TIP3      H1             -1.8990503985       25.7115842534      -30.9119346635  SOLV      1392            0.0000000000
      4290      1403  TIP3      H2             -1.2340503985       25.6691142534      -29.5525846635  SOLV      1392            0.0000000000
      4291      1404  TIP3      OH2            13.7377096015       25.6855242534      -24.3477746635  SOLV      1393            0.0000000000
      4292      1404  TIP3      H1             14.3204396015       24.9507542534      -24.1560546635  SOLV      1393            0.0000000000
      4293      1404  TIP3      H2             14.3016396015       26.4575542534      -24.3011946635  SOLV      1393            0.0000000000
      4294      1405  TIP3      OH2            15.2344196015       23.5881042534      -23.6632346635  SOLV      1394            0.0000000000
      4295      1405  TIP3      H1             14.3710896015       23.2093142534      -23.8287646635  SOLV      1394            0.0000000000
      4296      1405  TIP3      H2             15.8387896015       22.8495842534      -23.7376546635  SOLV      1394            0.0000000000
      4297      1406  TIP3      OH2            13.2329196015       22.6160442534      -27.3122646635  SOLV      1395            0.0000000000
      4298      1406  TIP3      H1             12.3900496015       22.8840842534      -26.9462846635  SOLV      1395            0.0000000000
      4299      1406  TIP3      H2             13.6753496015       23.4382342534      -27.5231546635  SOLV      1395            0.0000000000
      4300      1407  TIP3      OH2            -2.4858603985       21.0639142534      -23.8353446635  SOLV      1396            0.0000000000
      4301      1407  TIP3      H1             -1.5663703985       20.9417442534      -23.5990346635  SOLV      1396            0.0000000000
      4302      1407  TIP3      H2             -2.9354103985       20.3138842534      -23.4459946635  SOLV      1396            0.0000000000
      4303      1408  TIP3      OH2            15.5160796015       16.5960642534      -21.9587646635  SOLV      1397            0.0000000000
      4304      1408  TIP3      H1             15.8657796015       15.9424142534      -22.5642946635  SOLV      1397            0.0000000000
      4305      1408  TIP3      H2             15.6630296015       17.4334742534      -22.3985046635  SOLV      1397            0.0000000000
      4306      1409  TIP3      OH2            -1.2646103985       19.3760742534      -30.9440546635  SOLV      1398            0.0000000000
      4307      1409  TIP3      H1             -0.8194503985       18.5843242534      -30.6420846635  SOLV      1398            0.0000000000
      4308      1409  TIP3      H2             -0.7983103985       20.0925942534      -30.5134946635  SOLV      1398            0.0000000000
      4309      1410  TIP3      OH2            -2.9605803985       22.3753742534      -29.8750346635  SOLV      1399            0.0000000000
      4310      1410  TIP3      H1             -2.4686003985       22.1544242534      -30.6658346635  SOLV      1399            0.0000000000
      4311      1410  TIP3      H2             -2.5984903985       23.2157142534      -29.5940846635  SOLV      1399            0.0000000000
      4312      1411  TIP3      OH2            15.0357996015       18.7055242534      -23.6096346635  SOLV      1400            0.0000000000
      4313      1411  TIP3      H1             14.1183696015       18.9762342534      -23.6452846635  SOLV      1400            0.0000000000
      4314      1411  TIP3      H2             15.1587396015       18.1703642534      -24.3936646635  SOLV      1400            0.0000000000
      4315      1412  TIP3      OH2            -2.6469303985       18.6332842534      -35.8207946635  SOLV      1401            0.0000000000
      4316      1412  TIP3      H1             -3.5720903985       18.8419442534      -35.9502446635  SOLV      1401            0.0000000000
      4317      1412  TIP3      H2             -2.1929403985       19.1173642534      -36.5105646635  SOLV      1401            0.0000000000
      4318      1413  TIP3      OH2            -2.6833903985       17.3711842534      -27.4765446635  SOLV      1402            0.0000000000
      4319      1413  TIP3      H1             -3.3483403985       17.1252142534      -26.8334546635  SOLV      1402            0.0000000000
      4320      1413  TIP3      H2             -3.1262603985       17.9932242534      -28.0537446635  SOLV      1402            0.0000000000
      4321      1414  TIP3      OH2            -0.4914603985       30.5465942534      -23.3319646635  SOLV      1403            0.0000000000
      4322      1414  TIP3      H1             -1.3122103985       30.7212442534      -23.7924946635  SOLV      1403            0.0000000000
      4323      1414  TIP3      H2             -0.7436803985       30.4730642534      -22.4115246635  SOLV      1403            0.0000000000
      4324      1415  TIP3      OH2             2.4628296015       31.5207142534      -27.0735646635  SOLV      1404            0.0000000000
      4325      1415  TIP3      H1              2.0379396015       32.3305642534      -27.3561046635  SOLV      1404            0.0000000000
      4326      1415  TIP3      H2              3.3671096015       31.6061242534      -27.3755846635  SOLV      1404            0.0000000000
      4327      1416  TIP3      OH2             6.7739696015       32.9197142534      -24.1141946635  SOLV      1405            0.0000000000
      4328      1416  TIP3      H1              6.9587196015       32.5863242534      -23.2361646635  SOLV      1405            0.0000000000
      4329      1416  TIP3      H2              7.6204196015       33.2295742534      -24.4362746635  SOLV      1405            0.0000000000
      4330      1417  TIP3      OH2             9.1190096015       34.2056042534      -24.8700546635  SOLV      1406            0.0000000000
      4331      1417  TIP3      H1              9.7958996015       33.5728342534      -25.1101346635  SOLV      1406            0.0000000000
      4332      1417  TIP3      H2              9.4408896015       34.6066542534      -24.0627246635  SOLV      1406            0.0000000000
      4333      1418  TIP3      OH2            14.0363896015       16.7951542534      -25.7905546635  SOLV      1407            0.0000000000
      4334      1418  TIP3      H1             13.2237396015       17.1201842534      -26.1780846635  SOLV      1407            0.0000000000
      4335      1418  TIP3      H2             14.2692396015       16.0350042534      -26.3236446635  SOLV      1407            0.0000000000
      4336      1419  TIP3      OH2            -0.1355003985       34.7771042534      -27.0260346635  SOLV      1408            0.0000000000
      4337      1419  TIP3      H1             -0.8558603985       35.2172042534      -27.4772646635  SOLV      1408            0.0000000000
      4338      1419  TIP3      H2             -0.5011003985       34.5265742534      -26.1776346635  SOLV      1408            0.0000000000
      4339      1420  TIP3      OH2             2.3317596015       34.3774942534      -27.9963146635  SOLV      1409            0.0000000000
      4340      1420  TIP3      H1              1.4669796015       34.4493442534      -27.5923046635  SOLV      1409            0.0000000000
      4341      1420  TIP3      H2              2.2766596015       34.9242242534      -28.7800646635  SOLV      1409            0.0000000000
      4342      1421  TIP3      OH2            -0.7206903985       33.4003542534      -30.1158546635  SOLV      1410            0.0000000000
      4343      1421  TIP3      H1             -0.7390903985       32.9748642534      -29.2586246635  SOLV      1410            0.0000000000
      4344      1421  TIP3      H2              0.0840996015       33.0818542534      -30.5246346635  SOLV      1410            0.0000000000
      4345      1422  TIP3      OH2             1.4206196015       32.1102242534      -31.4608646635  SOLV      1411            0.0000000000
      4346      1422  TIP3      H1              1.2016896015       31.1939642534      -31.2912646635  SOLV      1411            0.0000000000
      4347      1422  TIP3      H2              2.2448396015       32.2502642534      -30.9947246635  SOLV      1411            0.0000000000
      4348      1423  TIP3      OH2             7.4662396015       18.2442142534      -31.4677346635  SOLV      1412            0.0000000000
      4349      1423  TIP3      H1              6.7919196015       17.6147742534      -31.2121546635  SOLV      1412            0.0000000000
      4350      1423  TIP3      H2              8.0301596015       17.7601042534      -32.0709446635  SOLV      1412            0.0000000000
      4351      1424  TIP3      OH2            -0.2070103985       16.8782442534      -33.6457446635  SOLV      1413            0.0000000000
      4352      1424  TIP3      H1             -0.9840303985       16.6437342534      -34.1531546635  SOLV      1413            0.0000000000
      4353      1424  TIP3      H2              0.3233496015       16.0814542534      -33.6369446635  SOLV      1413            0.0000000000
      4354      1425  TIP3      OH2            -1.3706703985       16.6760542534      -37.8421346635  SOLV      1414            0.0000000000
      4355      1425  TIP3      H1             -0.9316003985       17.2871042534      -38.4337846635  SOLV      1414            0.0000000000
      4356      1425  TIP3      H2             -2.0044303985       17.2144642534      -37.3681346635  SOLV      1414            0.0000000000
      4357      1426  TIP3      OH2             4.3722496015       16.8049542534      -33.8324346635  SOLV      1415            0.0000000000
      4358      1426  TIP3      H1              5.2465896015       17.1933842534      -33.8620046635  SOLV      1415            0.0000000000
      4359      1426  TIP3      H2              4.2363296015       16.5897342534      -32.9097146635  SOLV      1415            0.0000000000
      4360      1427  TIP3      OH2             9.9290896015       16.8349342534      -32.1832646635  SOLV      1416            0.0000000000
      4361      1427  TIP3      H1             10.0052496015       16.9300942534      -33.1326646635  SOLV      1416            0.0000000000
      4362      1427  TIP3      H2              9.6540096015       15.9272242534      -32.0543546635  SOLV      1416            0.0000000000
      4363      1428  TIP3      OH2            -0.2492103985       17.3924342534      -24.1281246635  SOLV      1417            0.0000000000
      4364      1428  TIP3      H1             -0.6153903985       16.6266942534      -23.6856546635  SOLV      1417            0.0000000000
      4365      1428  TIP3      H2              0.6636396015       17.4214542534      -23.8416146635  SOLV      1417            0.0000000000
      4366      1429  TIP3      OH2             1.7238696015       16.7428742534      -22.5924146635  SOLV      1418            0.0000000000
      4367      1429  TIP3      H1              2.6222296015       16.4688942534      -22.7770746635  SOLV      1418            0.0000000000
      4368      1429  TIP3      H2              1.3371796015       16.0004742534      -22.1281546635  SOLV      1418            0.0000000000
      4369      1430  TIP3      OH2            10.1450996015       16.0754042534      -22.4101346635  SOLV      1419            0.0000000000
      4370      1430  TIP3      H1             10.2218196015       15.6494742534      -21.5563646635  SOLV      1419            0.0000000000
      4371      1430  TIP3      H2             11.0387596015       16.0888742534      -22.7527846635  SOLV      1419            0.0000000000
      4372      1431  TIP3      OH2            13.3212096015       32.1480342534      -23.7177146635  SOLV      1420            0.0000000000
      4373      1431  TIP3      H1             12.5393996015       31.9618342534      -24.2376546635  SOLV      1420            0.0000000000
      4374      1431  TIP3      H2             13.2491996015       33.0774642534      -23.5004646635  SOLV      1420            0.0000000000
      4375      1432  TIP3      OH2            16.7438396015       25.1029442534      -25.7942046635  SOLV      1421            0.0000000000
      4376      1432  TIP3      H1             16.9666996015       24.6849042534      -24.9624546635  SOLV      1421            0.0000000000
      4377      1432  TIP3      H2             16.1418496015       24.4904442534      -26.2169246635  SOLV      1421            0.0000000000
      4378      1433  TIP3      OH2            18.3777896015       19.8562142534      -26.2360646635  SOLV      1422            0.0000000000
      4379      1433  TIP3      H1             17.4850196015       20.1947542534      -26.3036646635  SOLV      1422            0.0000000000
      4380      1433  TIP3      H2             18.2790696015       19.0008242534      -25.8179846635  SOLV      1422            0.0000000000
      4381      1434  TIP3      OH2            17.1462796015       27.3582042534      -22.4944746635  SOLV      1423            0.0000000000
      4382      1434  TIP3      H1             17.2903296015       26.4562742534      -22.7808046635  SOLV      1423            0.0000000000
      4383      1434  TIP3      H2             16.3740196015       27.6444142534      -22.9822446635  SOLV      1423            0.0000000000
      4384      1435  TIP3      OH2            17.9789296015       24.5585342534      -23.0745446635  SOLV      1424            0.0000000000
      4385      1435  TIP3      H1             18.3870496015       23.7011942534      -23.1954846635  SOLV      1424            0.0000000000
      4386      1435  TIP3      H2             17.7186896015       24.5726642534      -22.1535146635  SOLV      1424            0.0000000000
      4387      1436  TIP3      OH2            20.7439596015       22.1205342534      -22.7063846635  SOLV      1425            0.0000000000
      4388      1436  TIP3      H1             19.9768596015       21.5880142534      -22.9166246635  SOLV      1425            0.0000000000
      4389      1436  TIP3      H2             21.4228596015       21.8105742534      -23.3057546635  SOLV      1425            0.0000000000
      4390      1437  TIP3      OH2            18.9242396015       20.0409142534      -23.0019146635  SOLV      1426            0.0000000000
      4391      1437  TIP3      H1             19.1359796015       19.3345242534      -23.6121646635  SOLV      1426            0.0000000000
      4392      1437  TIP3      H2             18.8129896015       19.6035142534      -22.1577946635  SOLV      1426            0.0000000000
      4393      1438  TIP3      OH2            23.7052596015       16.0420742534      -24.0225646635  SOLV      1427            0.0000000000
      4394      1438  TIP3      H1             24.4170996015       15.4022942534      -24.0366546635  SOLV      1427            0.0000000000
      4395      1438  TIP3      H2             23.6042996015       16.3089042534      -24.9362546635  SOLV      1427            0.0000000000
      4396      1439  TIP3      OH2            24.0590096015       17.7249142534      -21.9689346635  SOLV      1428            0.0000000000
      4397      1439  TIP3      H1             23.9272296015       17.2492942534      -22.7890846635  SOLV      1428            0.0000000000
      4398      1439  TIP3      H2             23.4597496015       18.4692742534      -22.0242246635  SOLV      1428            0.0000000000
      4399      1440  TIP3      OH2            16.3701396015       21.0639142534      -23.8353446635  SOLV      1429            0.0000000000
      4400      1440  TIP3      H1             17.2896296015       20.9417442534      -23.5990346635  SOLV      1429            0.0000000000
      4401      1440  TIP3      H2             15.9205896015       20.3138842534      -23.4459946635  SOLV      1429            0.0000000000
      4402      1441  TIP3      OH2            16.1726096015       17.3711842534      -27.4765446635  SOLV      1430            0.0000000000
      4403      1441  TIP3      H1             15.5076596015       17.1252142534      -26.8334546635  SOLV      1430            0.0000000000
      4404      1441  TIP3      H2             15.7297396015       17.9932242534      -28.0537446635  SOLV      1430            0.0000000000
      4405      1442  TIP3      OH2            18.6067896015       17.3924342534      -24.1281246635  SOLV      1431            0.0000000000
      4406      1442  TIP3      H1             18.2406096015       16.6266942534      -23.6856546635  SOLV      1431            0.0000000000
      4407      1442  TIP3      H2             19.5196396015       17.4214542534      -23.8416146635  SOLV      1431            0.0000000000
      4408      1443  TIP3      OH2            20.5798696015       16.7428742534      -22.5924146635  SOLV      1432            0.0000000000
      4409      1443  TIP3      H1             21.4782296015       16.4688942534      -22.7770746635  SOLV      1432            0.0000000000
      4410      1443  TIP3      H2             20.1931796015       16.0004742534      -22.1281546635  SOLV      1432            0.0000000000
      4411      1444  TIP3      OH2           -13.6529903985       36.5809142534      -21.9689346635  SOLV      1433            0.0000000000
      4412      1444  TIP3      H1            -13.7847703985       36.1052942534      -22.7890846635  SOLV      1433            0.0000000000
      4413      1444  TIP3      H2            -14.2522503985       37.3252742534      -22.0242246635  SOLV      1433            0.0000000000
      4414      1445  TIP3      OH2            -3.3399203985       35.4520642534      -21.9587646635  SOLV      1434            0.0000000000
      4415      1445  TIP3      H1             -2.9902203985       34.7984142534      -22.5642946635  SOLV      1434            0.0000000000
      4416      1445  TIP3      H2             -3.1929703985       36.2894742534      -22.3985046635  SOLV      1434            0.0000000000
      4417      1446  TIP3      OH2            -4.8196103985       35.6511542534      -25.7905546635  SOLV      1435            0.0000000000
      4418      1446  TIP3      H1             -5.6322603985       35.9761842534      -26.1780846635  SOLV      1435            0.0000000000
      4419      1446  TIP3      H2             -4.5867603985       34.8910042534      -26.3236446635  SOLV      1435            0.0000000000
      4420      1447  TIP3      OH2            -8.7109003985       34.9314042534      -22.4101346635  SOLV      1436            0.0000000000
      4421      1447  TIP3      H1             -8.6341803985       34.5054742534      -21.5563646635  SOLV      1436            0.0000000000
      4422      1447  TIP3      H2             -7.8172403985       34.9448742534      -22.7527846635  SOLV      1436            0.0000000000
      4423      1448  TIP3      OH2             7.2575496015       35.9224042534      -26.5832146635  SOLV      1437            0.0000000000
      4424      1448  TIP3      H1              7.6778596015       35.5071142534      -25.8301546635  SOLV      1437            0.0000000000
      4425      1448  TIP3      H2              6.3245096015       35.7437342534      -26.4660146635  SOLV      1437            0.0000000000
      4426      1449  TIP3      OH2             4.6274496015       35.6043342534      -26.6938446635  SOLV      1438            0.0000000000
      4427      1449  TIP3      H1              4.5294096015       36.5506542534      -26.7992246635  SOLV      1438            0.0000000000
      4428      1449  TIP3      H2              3.8850696015       35.2317142534      -27.1694946635  SOLV      1438            0.0000000000
      4429      1450  TIP3      OH2             4.8492596015       34.8980742534      -24.0225646635  SOLV      1439            0.0000000000
      4430      1450  TIP3      H1              5.5610996015       34.2582942534      -24.0366546635  SOLV      1439            0.0000000000
      4431      1450  TIP3      H2              4.7482996015       35.1649042534      -24.9362546635  SOLV      1439            0.0000000000
      4432      1451  TIP3      OH2             5.2030096015       36.5809142534      -21.9689346635  SOLV      1440            0.0000000000
      4433      1451  TIP3      H1              5.0712296015       36.1052942534      -22.7890846635  SOLV      1440            0.0000000000
      4434      1451  TIP3      H2              4.6037496015       37.3252742534      -22.0242246635  SOLV      1440            0.0000000000
      4435      1452  TIP3      OH2            -2.6833903985       36.2271842534      -27.4765446635  SOLV      1441            0.0000000000
      4436      1452  TIP3      H1             -3.3483403985       35.9812142534      -26.8334546635  SOLV      1441            0.0000000000
      4437      1452  TIP3      H2             -3.1262603985       36.8492242534      -28.0537446635  SOLV      1441            0.0000000000
      4438      1453  TIP3      OH2            -0.2492103985       36.2484342534      -24.1281246635  SOLV      1442            0.0000000000
      4439      1453  TIP3      H1             -0.6153903985       35.4826942534      -23.6856546635  SOLV      1442            0.0000000000
      4440      1453  TIP3      H2              0.6636396015       36.2774542534      -23.8416146635  SOLV      1442            0.0000000000
      4441      1454  TIP3      OH2             1.7238696015       35.5988742534      -22.5924146635  SOLV      1443            0.0000000000
      4442      1454  TIP3      H1              2.6222296015       35.3248942534      -22.7770746635  SOLV      1443            0.0000000000
      4443      1454  TIP3      H2              1.3371796015       34.8564742534      -22.1281546635  SOLV      1443            0.0000000000
      4444      1455  TIP3      OH2            10.1450996015       34.9314042534      -22.4101346635  SOLV      1444            0.0000000000
      4445      1455  TIP3      H1             10.2218196015       34.5054742534      -21.5563646635  SOLV      1444            0.0000000000
      4446      1455  TIP3      H2             11.0387596015       34.9448742534      -22.7527846635  SOLV      1444            0.0000000000
      4447      1456  TIP3      OH2           -28.8407503985      -30.5335257466      -14.8309946635  SOLV      1445            0.0000000000
      4448      1456  TIP3      H1            -28.7516403985      -29.5897057466      -14.9632846635  SOLV      1445            0.0000000000
      4449      1456  TIP3      H2            -29.4789903985      -30.8088857466      -15.4890546635  SOLV      1445            0.0000000000
      4450      1457  TIP3      OH2           -26.2016003985      -28.3394157466      -13.1106646635  SOLV      1446            0.0000000000
      4451      1457  TIP3      H1            -26.6423303985      -29.0598157466      -12.6601046635  SOLV      1446            0.0000000000
      4452      1457  TIP3      H2            -26.2146303985      -27.6186957466      -12.4808946635  SOLV      1446            0.0000000000
      4453      1458  TIP3      OH2           -29.0900503985      -23.2352457466      -12.8986246635  SOLV      1447            0.0000000000
      4454      1458  TIP3      H1            -28.4704103985      -23.9117757466      -13.1717046635  SOLV      1447            0.0000000000
      4455      1458  TIP3      H2            -29.2983103985      -23.4531657466      -11.9901346635  SOLV      1447            0.0000000000
      4456      1459  TIP3      OH2           -31.5181803985      -28.8463157466      -11.0060746635  SOLV      1448            0.0000000000
      4457      1459  TIP3      H1            -31.2143903985      -29.5321757466      -11.6006646635  SOLV      1448            0.0000000000
      4458      1459  TIP3      H2            -30.7967803985      -28.7274457466      -10.3882746635  SOLV      1448            0.0000000000
      4459      1460  TIP3      OH2           -22.8552003985      -37.2447857466      -10.1454546635  SOLV      1449            0.0000000000
      4460      1460  TIP3      H1            -22.8059803985      -36.6346657466       -9.4095446635  SOLV      1449            0.0000000000
      4461      1460  TIP3      H2            -22.4296903985      -36.7836957466      -10.8683446635  SOLV      1449            0.0000000000
      4462      1461  TIP3      OH2           -22.4637403985      -35.7668657466       -7.9094746635  SOLV      1450            0.0000000000
      4463      1461  TIP3      H1            -23.1522803985      -35.1087957466       -8.0048146635  SOLV      1450            0.0000000000
      4464      1461  TIP3      H2            -22.4482803985      -35.9640757466       -6.9729346635  SOLV      1450            0.0000000000
      4465      1462  TIP3      OH2           -29.0434803985      -27.9324857466      -15.7881246635  SOLV      1451            0.0000000000
      4466      1462  TIP3      H1            -29.3389703985      -28.2552557466      -16.6394346635  SOLV      1451            0.0000000000
      4467      1462  TIP3      H2            -29.3677003985      -27.0328157466      -15.7468646635  SOLV      1451            0.0000000000
      4468      1463  TIP3      OH2           -25.6898303985      -26.5003457466      -10.7627346635  SOLV      1452            0.0000000000
      4469      1463  TIP3      H1            -26.6314603985      -26.4419557466      -10.6010446635  SOLV      1452            0.0000000000
      4470      1463  TIP3      H2            -25.4132203985      -25.5942957466      -10.8997646635  SOLV      1452            0.0000000000
      4471      1464  TIP3      OH2           -27.4377103985      -24.7189957466      -14.1375746635  SOLV      1453            0.0000000000
      4472      1464  TIP3      H1            -27.0124803985      -25.4262057466      -14.6226146635  SOLV      1453            0.0000000000
      4473      1464  TIP3      H2            -27.1207103985      -23.9177257466      -14.5543546635  SOLV      1453            0.0000000000
      4474      1465  TIP3      OH2           -26.2780603985      -26.8181457466      -15.6289146635  SOLV      1454            0.0000000000
      4475      1465  TIP3      H1            -26.5355803985      -27.5081357466      -16.2403246635  SOLV      1454            0.0000000000
      4476      1465  TIP3      H2            -26.2069803985      -27.2610257466      -14.7833246635  SOLV      1454            0.0000000000
      4477      1466  TIP3      OH2           -24.5920403985      -28.2514757466       -7.1515646635  SOLV      1455            0.0000000000
      4478      1466  TIP3      H1            -24.4524103985      -28.8432257466       -7.8908646635  SOLV      1455            0.0000000000
      4479      1466  TIP3      H2            -24.4247603985      -27.3788857466       -7.5076846635  SOLV      1455            0.0000000000
      4480      1467  TIP3      OH2           -22.7501103985      -31.9116757466       -9.0855246635  SOLV      1456            0.0000000000
      4481      1467  TIP3      H1            -23.4027003985      -31.2171157466       -8.9964346635  SOLV      1456            0.0000000000
      4482      1467  TIP3      H2            -22.2850803985      -31.7015857466       -9.8953646635  SOLV      1456            0.0000000000
      4483      1468  TIP3      OH2           -26.7137303985      -31.0801957466      -16.4273746635  SOLV      1457            0.0000000000
      4484      1468  TIP3      H1            -27.4456303985      -30.8518257466      -15.8543146635  SOLV      1457            0.0000000000
      4485      1468  TIP3      H2            -26.2665103985      -31.7939257466      -15.9726246635  SOLV      1457            0.0000000000
      4486      1469  TIP3      OH2           -26.8163803985      -32.9059357466       -7.3596746635  SOLV      1458            0.0000000000
      4487      1469  TIP3      H1            -26.7364703985      -32.1424957466       -6.7878246635  SOLV      1458            0.0000000000
      4488      1469  TIP3      H2            -27.4176103985      -32.6266957466       -8.0501646635  SOLV      1458            0.0000000000
      4489      1470  TIP3      OH2           -28.3925903985      -26.1778257466      -10.1773246635  SOLV      1459            0.0000000000
      4490      1470  TIP3      H1            -28.6329303985      -25.5155157466       -9.5294046635  SOLV      1459            0.0000000000
      4491      1470  TIP3      H2            -28.5907703985      -27.0123057466       -9.7523646635  SOLV      1459            0.0000000000
      4492      1471  TIP3      OH2           -30.1162903985      -25.1810557466      -15.3069446635  SOLV      1460            0.0000000000
      4493      1471  TIP3      H1            -29.6425303985      -24.8854257466      -14.5295246635  SOLV      1460            0.0000000000
      4494      1471  TIP3      H2            -30.6793603985      -24.4428957466      -15.5399846635  SOLV      1460            0.0000000000
      4495      1472  TIP3      OH2           -22.9548003985      -25.8016257466      -20.5528946635  SOLV      1461            0.0000000000
      4496      1472  TIP3      H1            -22.8814503985      -24.8626057466      -20.3823646635  SOLV      1461            0.0000000000
      4497      1472  TIP3      H2            -22.0492903985      -26.1067657466      -20.6091646635  SOLV      1461            0.0000000000
      4498      1473  TIP3      OH2           -22.0369603985      -25.5708757466       -5.5742246635  SOLV      1462            0.0000000000
      4499      1473  TIP3      H1            -22.0862803985      -26.5260657466       -5.6114646635  SOLV      1462            0.0000000000
      4500      1473  TIP3      H2            -22.8637303985      -25.3033457466       -5.1728446635  SOLV      1462            0.0000000000
      4501      1474  TIP3      OH2           -31.0585603985      -25.9969557466       -6.6980846635  SOLV      1463            0.0000000000
      4502      1474  TIP3      H1            -30.9711003985      -25.1704957466       -6.2231746635  SOLV      1463            0.0000000000
      4503      1474  TIP3      H2            -31.9220503985      -26.3265757466       -6.4491546635  SOLV      1463            0.0000000000
      4504      1475  TIP3      OH2           -30.6439803985      -22.2245857466      -16.8920246635  SOLV      1464            0.0000000000
      4505      1475  TIP3      H1            -30.7193803985      -22.3458657466      -17.8385046635  SOLV      1464            0.0000000000
      4506      1475  TIP3      H2            -30.6111103985      -21.2753157466      -16.7735646635  SOLV      1464            0.0000000000
      4507      1476  TIP3      OH2           -27.5423803985      -23.0705657466      -19.8897846635  SOLV      1465            0.0000000000
      4508      1476  TIP3      H1            -27.1675403985      -23.8149557466      -20.3605246635  SOLV      1465            0.0000000000
      4509      1476  TIP3      H2            -27.5380103985      -23.3405057466      -18.9714546635  SOLV      1465            0.0000000000
      4510      1477  TIP3      OH2           -27.8735703985      -23.1448557466      -17.1405646635  SOLV      1466            0.0000000000
      4511      1477  TIP3      H1            -28.8085903985      -23.0446657466      -16.9618646635  SOLV      1466            0.0000000000
      4512      1477  TIP3      H2            -27.5933803985      -23.8542557466      -16.5622446635  SOLV      1466            0.0000000000
      4513      1478  TIP3      OH2           -24.8849803985      -34.0776257466       -5.0940046635  SOLV      1467            0.0000000000
      4514      1478  TIP3      H1            -25.2923003985      -33.5970657466       -5.8146746635  SOLV      1467            0.0000000000
      4515      1478  TIP3      H2            -24.8444103985      -34.9830257466       -5.4019246635  SOLV      1467            0.0000000000
      4516      1479  TIP3      OH2           -24.7550803985      -21.7032557466       -4.4675446635  SOLV      1468            0.0000000000
      4517      1479  TIP3      H1            -24.5552103985      -21.2790657466       -5.3020146635  SOLV      1468            0.0000000000
      4518      1479  TIP3      H2            -24.0997103985      -21.3594357466       -3.8605046635  SOLV      1468            0.0000000000
      4519      1480  TIP3      OH2           -24.8070703985      -30.0879257466       -9.2360846635  SOLV      1469            0.0000000000
      4520      1480  TIP3      H1            -24.1651903985      -29.6312957466       -9.7798646635  SOLV      1469            0.0000000000
      4521      1480  TIP3      H2            -25.6373803985      -29.9746857466       -9.6986746635  SOLV      1469            0.0000000000
      4522      1481  TIP3      OH2           -30.4377503985      -29.0364157466       -6.7859346635  SOLV      1470            0.0000000000
      4523      1481  TIP3      H1            -30.7831403985      -29.4181757466       -5.9789746635  SOLV      1470            0.0000000000
      4524      1481  TIP3      H2            -30.6377403985      -28.1030557466       -6.7146446635  SOLV      1470            0.0000000000
      4525      1482  TIP3      OH2           -28.1873903985      -26.5748657466       -6.8354346635  SOLV      1471            0.0000000000
      4526      1482  TIP3      H1            -29.0879603985      -26.3916057466       -7.1030446635  SOLV      1471            0.0000000000
      4527      1482  TIP3      H2            -28.1532803985      -26.3159357466       -5.9145546635  SOLV      1471            0.0000000000
      4528      1483  TIP3      OH2           -22.4928603985      -28.5299057466       -5.6310246635  SOLV      1472            0.0000000000
      4529      1483  TIP3      H1            -23.3440103985      -28.2915257466       -5.9983846635  SOLV      1472            0.0000000000
      4530      1483  TIP3      H2            -21.9025203985      -28.5465857466       -6.3843146635  SOLV      1472            0.0000000000
      4531      1484  TIP3      OH2           -24.1608903985      -25.5440357466      -18.0029646635  SOLV      1473            0.0000000000
      4532      1484  TIP3      H1            -24.5337803985      -26.3696557466      -17.6939046635  SOLV      1473            0.0000000000
      4533      1484  TIP3      H2            -23.8835403985      -25.7270957466      -18.9006246635  SOLV      1473            0.0000000000
      4534      1485  TIP3      OH2           -27.0005003985      -30.7360857466      -10.9817746635  SOLV      1474            0.0000000000
      4535      1485  TIP3      H1            -27.9288103985      -30.9678957466      -11.0088446635  SOLV      1474            0.0000000000
      4536      1485  TIP3      H2            -26.5493903985      -31.5131057466      -11.3118946635  SOLV      1474            0.0000000000
      4537      1486  TIP3      OH2           -32.5153003985      -24.5955757466       -8.9573646635  SOLV      1475            0.0000000000
      4538      1486  TIP3      H1            -32.1528303985      -23.7410157466       -9.1909246635  SOLV      1475            0.0000000000
      4539      1486  TIP3      H2            -31.9837803985      -24.8874157466       -8.2167346635  SOLV      1475            0.0000000000
      4540      1487  TIP3      OH2           -34.3468803985      -23.7231757466      -15.7272546635  SOLV      1476            0.0000000000
      4541      1487  TIP3      H1            -35.2968303985      -23.6174357466      -15.6759246635  SOLV      1476            0.0000000000
      4542      1487  TIP3      H2            -33.9950703985      -22.9024357466      -15.3825046635  SOLV      1476            0.0000000000
      4543      1488  TIP3      OH2           -28.9712203985      -28.4965057466       -9.2568046635  SOLV      1477            0.0000000000
      4544      1488  TIP3      H1            -29.3970903985      -28.7243357466       -8.4304046635  SOLV      1477            0.0000000000
      4545      1488  TIP3      H2            -28.3906403985      -29.2353257466       -9.4392746635  SOLV      1477            0.0000000000
      4546      1489  TIP3      OH2           -26.3128003985      -23.9445557466       -6.7873246635  SOLV      1478            0.0000000000
      4547      1489  TIP3      H1            -26.9144803985      -24.5002657466       -7.2826946635  SOLV      1478            0.0000000000
      4548      1489  TIP3      H2            -26.0314303985      -23.2775757466       -7.4135846635  SOLV      1478            0.0000000000
      4549      1490  TIP3      OH2           -22.2648903985      -23.0882057466      -19.9818846635  SOLV      1479            0.0000000000
      4550      1490  TIP3      H1            -21.5211003985      -22.5021557466      -20.1217246635  SOLV      1479            0.0000000000
      4551      1490  TIP3      H2            -22.9590803985      -22.5196257466      -19.6486446635  SOLV      1479            0.0000000000
      4552      1491  TIP3      OH2           -25.9024003985      -28.8952557466      -17.9561146635  SOLV      1480            0.0000000000
      4553      1491  TIP3      H1            -26.1796403985      -29.6233257466      -17.4000046635  SOLV      1480            0.0000000000
      4554      1491  TIP3      H2            -24.9751003985      -28.7760557466      -17.7508546635  SOLV      1480            0.0000000000
      4555      1492  TIP3      OH2           -24.7311703985      -36.6974057466       -6.5385046635  SOLV      1481            0.0000000000
      4556      1492  TIP3      H1            -25.6475903985      -36.4352357466       -6.6261346635  SOLV      1481            0.0000000000
      4557      1492  TIP3      H2            -24.3956703985      -36.7005057466       -7.4349746635  SOLV      1481            0.0000000000
      4558      1493  TIP3      OH2           -26.1290703985      -32.9473057466      -12.4427746635  SOLV      1482            0.0000000000
      4559      1493  TIP3      H1            -26.9266303985      -33.3622857466      -12.7712746635  SOLV      1482            0.0000000000
      4560      1493  TIP3      H2            -25.6839603985      -33.6379357466      -11.9517246635  SOLV      1482            0.0000000000
      4561      1494  TIP3      OH2           -25.0426103985      -23.6910557466      -10.8204246635  SOLV      1483            0.0000000000
      4562      1494  TIP3      H1            -25.1981803985      -23.0126157466      -11.4774946635  SOLV      1483            0.0000000000
      4563      1494  TIP3      H2            -24.1099703985      -23.6191257466      -10.6173646635  SOLV      1483            0.0000000000
      4564      1495  TIP3      OH2           -34.7313303985      -24.1007657466       -2.9724846635  SOLV      1484            0.0000000000
      4565      1495  TIP3      H1            -33.9636103985      -24.5596857466       -2.6315646635  SOLV      1484            0.0000000000
      4566      1495  TIP3      H2            -34.7527103985      -24.3267857466       -3.9023646635  SOLV      1484            0.0000000000
      4567      1496  TIP3      OH2           -28.1544603985      -25.7206557466       -4.2433346635  SOLV      1485            0.0000000000
      4568      1496  TIP3      H1            -28.5055103985      -26.5773557466       -4.0002946635  SOLV      1485            0.0000000000
      4569      1496  TIP3      H2            -27.4281403985      -25.5779857466       -3.6364346635  SOLV      1485            0.0000000000
      4570      1497  TIP3      OH2           -27.0315903985      -29.3242557466       -6.8226046635  SOLV      1486            0.0000000000
      4571      1497  TIP3      H1            -26.2861103985      -28.7358857466       -6.9422046635  SOLV      1486            0.0000000000
      4572      1497  TIP3      H2            -27.7889103985      -28.7422857466       -6.7592946635  SOLV      1486            0.0000000000
      4573      1498  TIP3      OH2           -29.6222203985      -30.5293657466       -3.5667746635  SOLV      1487            0.0000000000
      4574      1498  TIP3      H1            -28.6691003985      -30.4454557466       -3.5941746635  SOLV      1487            0.0000000000
      4575      1498  TIP3      H2            -29.7827603985      -31.2411857466       -2.9472846635  SOLV      1487            0.0000000000
      4576      1499  TIP3      OH2           -27.8926403985      -34.0214357466       -3.0011546635  SOLV      1488            0.0000000000
      4577      1499  TIP3      H1            -27.7005103985      -34.9524957466       -3.1127046635  SOLV      1488            0.0000000000
      4578      1499  TIP3      H2            -27.0350103985      -33.5964857466       -3.0116146635  SOLV      1488            0.0000000000
      4579      1500  TIP3      OH2           -26.5759203985      -31.2329157466       -4.9238846635  SOLV      1489            0.0000000000
      4580      1500  TIP3      H1            -26.8574203985      -30.5234557466       -5.5015046635  SOLV      1489            0.0000000000
      4581      1500  TIP3      H2            -25.6334903985      -31.3056157466       -5.0747646635  SOLV      1489            0.0000000000
      4582      1501  TIP3      OH2           -22.3268103985      -23.0404857466      -10.5912346635  SOLV      1490            0.0000000000
      4583      1501  TIP3      H1            -22.3481403985      -22.8556457466       -9.6522946635  SOLV      1490            0.0000000000
      4584      1501  TIP3      H2            -21.6361903985      -22.4720857466      -10.9320946635  SOLV      1490            0.0000000000
      4585      1502  TIP3      OH2           -22.7635203985      -23.4733757466       -7.6693246635  SOLV      1491            0.0000000000
      4586      1502  TIP3      H1            -23.2506503985      -24.2089657466       -8.0405846635  SOLV      1491            0.0000000000
      4587      1502  TIP3      H2            -22.2142503985      -23.8669857466       -6.9913846635  SOLV      1491            0.0000000000
      4588      1503  TIP3      OH2           -24.3127903985      -27.6835657466       -3.0312946635  SOLV      1492            0.0000000000
      4589      1503  TIP3      H1            -25.1786803985      -27.7885957466       -2.6370646635  SOLV      1492            0.0000000000
      4590      1503  TIP3      H2            -23.9362003985      -26.9252357466       -2.5848246635  SOLV      1492            0.0000000000
      4591      1504  TIP3      OH2           -23.0118203985      -29.4271957466      -17.5170446635  SOLV      1493            0.0000000000
      4592      1504  TIP3      H1            -22.1616803985      -29.0061057466      -17.3898846635  SOLV      1493            0.0000000000
      4593      1504  TIP3      H2            -23.0063103985      -30.1671857466      -16.9099046635  SOLV      1493            0.0000000000
      4594      1505  TIP3      OH2           -22.6172603985      -31.3734557466      -15.6934746635  SOLV      1494            0.0000000000
      4595      1505  TIP3      H1            -23.3438003985      -31.8531957466      -15.2957146635  SOLV      1494            0.0000000000
      4596      1505  TIP3      H2            -22.0359303985      -31.1679857466      -14.9613146635  SOLV      1494            0.0000000000
      4597      1506  TIP3      OH2           -22.8581403985      -28.5887057466      -10.7457146635  SOLV      1495            0.0000000000
      4598      1506  TIP3      H1            -22.0247203985      -28.9667057466      -11.0263546635  SOLV      1495            0.0000000000
      4599      1506  TIP3      H2            -22.7461103985      -27.6455857466      -10.8648046635  SOLV      1495            0.0000000000
      4600      1507  TIP3      OH2           -24.3719103985      -25.7109557466       -8.4388746635  SOLV      1496            0.0000000000
      4601      1507  TIP3      H1            -25.0193803985      -25.3858057466       -7.8133546635  SOLV      1496            0.0000000000
      4602      1507  TIP3      H2            -24.8895103985      -26.1511857466       -9.1130446635  SOLV      1496            0.0000000000
      4603      1508  TIP3      OH2           -22.3489503985      -31.4726057466      -19.3023446635  SOLV      1497            0.0000000000
      4604      1508  TIP3      H1            -22.8708403985      -31.1161957466      -20.0212546635  SOLV      1497            0.0000000000
      4605      1508  TIP3      H2            -22.3820303985      -30.7978257466      -18.6242546635  SOLV      1497            0.0000000000
      4606      1509  TIP3      OH2           -24.8305803985      -32.8528057466      -15.1306046635  SOLV      1498            0.0000000000
      4607      1509  TIP3      H1            -24.9807003985      -33.7979457466      -15.1508246635  SOLV      1498            0.0000000000
      4608      1509  TIP3      H2            -25.1841303985      -32.5716657466      -14.2866946635  SOLV      1498            0.0000000000
      4609      1510  TIP3      OH2           -23.9742903985      -30.8824757466       -5.4917746635  SOLV      1499            0.0000000000
      4610      1510  TIP3      H1            -23.3915603985      -31.6172457466       -5.3000546635  SOLV      1499            0.0000000000
      4611      1510  TIP3      H2            -23.4103603985      -30.1104457466       -5.4451946635  SOLV      1499            0.0000000000
      4612      1511  TIP3      OH2           -22.4775803985      -32.9798957466       -4.8072346635  SOLV      1500            0.0000000000
      4613      1511  TIP3      H1            -23.3409103985      -33.3586857466       -4.9727646635  SOLV      1500            0.0000000000
      4614      1511  TIP3      H2            -21.8732103985      -33.7184157466       -4.8816546635  SOLV      1500            0.0000000000
      4615      1512  TIP3      OH2           -24.5082703985      -34.6884857466      -11.2322046635  SOLV      1501            0.0000000000
      4616      1512  TIP3      H1            -23.5754703985      -34.4764957466      -11.2666046635  SOLV      1501            0.0000000000
      4617      1512  TIP3      H2            -24.7435203985      -34.5872757466      -10.3099046635  SOLV      1501            0.0000000000
      4618      1513  TIP3      OH2           -24.4790803985      -33.9519557466       -8.4562646635  SOLV      1502            0.0000000000
      4619      1513  TIP3      H1            -25.3219503985      -33.6839157466       -8.0902846635  SOLV      1502            0.0000000000
      4620      1513  TIP3      H2            -24.0366503985      -33.1297657466       -8.6671546635  SOLV      1502            0.0000000000
      4621      1514  TIP3      OH2           -25.5882103985      -22.9505457466      -15.0190546635  SOLV      1503            0.0000000000
      4622      1514  TIP3      H1            -24.9359203985      -23.2983357466      -15.6271446635  SOLV      1503            0.0000000000
      4623      1514  TIP3      H2            -25.0778303985      -22.4622257466      -14.3730846635  SOLV      1503            0.0000000000
      4624      1515  TIP3      OH2           -30.9380303985      -23.6482857466       -5.2581946635  SOLV      1504            0.0000000000
      4625      1515  TIP3      H1            -30.7532803985      -23.9816757466       -4.3801646635  SOLV      1504            0.0000000000
      4626      1515  TIP3      H2            -30.0915803985      -23.3384257466       -5.5802746635  SOLV      1504            0.0000000000
      4627      1516  TIP3      OH2           -28.5929903985      -22.3623957466       -6.0140546635  SOLV      1505            0.0000000000
      4628      1516  TIP3      H1            -27.9161003985      -22.9951657466       -6.2541346635  SOLV      1505            0.0000000000
      4629      1516  TIP3      H2            -28.2711103985      -21.9613457466       -5.2067246635  SOLV      1505            0.0000000000
      4630      1517  TIP3      OH2           -35.3802403985      -22.1905057466       -9.1403146635  SOLV      1506            0.0000000000
      4631      1517  TIP3      H1            -36.2450203985      -22.1186557466       -8.7363046635  SOLV      1506            0.0000000000
      4632      1517  TIP3      H2            -35.4353403985      -21.6437757466       -9.9240646635  SOLV      1506            0.0000000000
      4633      1518  TIP3      OH2           -30.6696803985      -22.3026157466       -9.9647146635  SOLV      1507            0.0000000000
      4634      1518  TIP3      H1            -31.1262803985      -21.7736457466      -10.6188746635  SOLV      1507            0.0000000000
      4635      1518  TIP3      H2            -30.5068803985      -21.6994757466       -9.2394846635  SOLV      1507            0.0000000000
      4636      1519  TIP3      OH2           -28.3420503985      -23.4246557466       -9.0196846635  SOLV      1508            0.0000000000
      4637      1519  TIP3      H1            -29.2466803985      -23.2596357466       -9.2854746635  SOLV      1508            0.0000000000
      4638      1519  TIP3      H2            -27.9131903985      -22.5714357466       -9.0853446635  SOLV      1508            0.0000000000
      4639      1520  TIP3      OH2           -25.7378603985      -21.8547457466       -8.7249046635  SOLV      1509            0.0000000000
      4640      1520  TIP3      H1            -25.9196603985      -20.9388557466       -8.9354146635  SOLV      1509            0.0000000000
      4641      1520  TIP3      H2            -25.5610803985      -22.2650357466       -9.5714446635  SOLV      1509            0.0000000000
      4642      1521  TIP3      OH2           -33.7541303985      -23.9878457466      -11.7560646635  SOLV      1510            0.0000000000
      4643      1521  TIP3      H1            -33.5415603985      -24.8759457466      -12.0429746635  SOLV      1510            0.0000000000
      4644      1521  TIP3      H2            -33.6896203985      -24.0220757466      -10.8016646635  SOLV      1510            0.0000000000
      4645      1522  TIP3      OH2           -23.6084103985      -23.1712057466      -17.0118946635  SOLV      1511            0.0000000000
      4646      1522  TIP3      H1            -23.8027003985      -23.9189957466      -17.5769346635  SOLV      1511            0.0000000000
      4647      1522  TIP3      H2            -23.6474003985      -22.4131957466      -17.5951046635  SOLV      1511            0.0000000000
      4648      1523  TIP3      OH2           -24.3907903985      -24.4199657466       -4.8617146635  SOLV      1512            0.0000000000
      4649      1523  TIP3      H1            -25.1726003985      -24.6061657466       -5.3816546635  SOLV      1512            0.0000000000
      4650      1523  TIP3      H2            -24.4628003985      -23.4905357466       -4.6444646635  SOLV      1512            0.0000000000
      4651      1524  TIP3      OH2            -9.9847503985      -30.5335257466      -14.8309946635  SOLV      1513            0.0000000000
      4652      1524  TIP3      H1             -9.8956403985      -29.5897057466      -14.9632846635  SOLV      1513            0.0000000000
      4653      1524  TIP3      H2            -10.6229903985      -30.8088857466      -15.4890546635  SOLV      1513            0.0000000000
      4654      1525  TIP3      OH2           -11.0516203985      -31.2784557466      -11.4121746635  SOLV      1514            0.0000000000
      4655      1525  TIP3      H1            -11.0898703985      -31.9248257466      -10.7072146635  SOLV      1514            0.0000000000
      4656      1525  TIP3      H2            -11.3739703985      -31.7450157466      -12.1833046635  SOLV      1514            0.0000000000
      4657      1526  TIP3      OH2           -18.6831203985      -31.6642457466       -9.8191846635  SOLV      1515            0.0000000000
      4658      1526  TIP3      H1            -18.6419103985      -32.2899157466       -9.0959446635  SOLV      1515            0.0000000000
      4659      1526  TIP3      H2            -17.9803503985      -31.0403857466       -9.6371446635  SOLV      1515            0.0000000000
      4660      1527  TIP3      OH2            -7.3456003985      -28.3394157466      -13.1106646635  SOLV      1516            0.0000000000
      4661      1527  TIP3      H1             -7.7863303985      -29.0598157466      -12.6601046635  SOLV      1516            0.0000000000
      4662      1527  TIP3      H2             -7.3586303985      -27.6186957466      -12.4808946635  SOLV      1516            0.0000000000
      4663      1528  TIP3      OH2           -17.7598103985      -27.2143557466      -11.2842746635  SOLV      1517            0.0000000000
      4664      1528  TIP3      H1            -18.1292903985      -28.0163057466      -11.6538446635  SOLV      1517            0.0000000000
      4665      1528  TIP3      H2            -16.8187003985      -27.3828657466      -11.2379346635  SOLV      1517            0.0000000000
      4666      1529  TIP3      OH2           -21.1497603985      -33.5540957466      -15.8913946635  SOLV      1518            0.0000000000
      4667      1529  TIP3      H1            -21.5974203985      -32.7082257466      -15.9097446635  SOLV      1518            0.0000000000
      4668      1529  TIP3      H2            -21.7106403985      -34.1336757466      -16.4068846635  SOLV      1518            0.0000000000
      4669      1530  TIP3      OH2           -20.4391503985      -31.3921357466      -13.7655946635  SOLV      1519            0.0000000000
      4670      1530  TIP3      H1            -20.2258003985      -32.1619757466      -13.2382946635  SOLV      1519            0.0000000000
      4671      1530  TIP3      H2            -19.7013903985      -31.3024657466      -14.3688346635  SOLV      1519            0.0000000000
      4672      1531  TIP3      OH2           -10.2340503985      -23.2352457466      -12.8986246635  SOLV      1520            0.0000000000
      4673      1531  TIP3      H1             -9.6144103985      -23.9117757466      -13.1717046635  SOLV      1520            0.0000000000
      4674      1531  TIP3      H2            -10.4423103985      -23.4531657466      -11.9901346635  SOLV      1520            0.0000000000
      4675      1532  TIP3      OH2           -12.6621803985      -28.8463157466      -11.0060746635  SOLV      1521            0.0000000000
      4676      1532  TIP3      H1            -12.3583903985      -29.5321757466      -11.6006646635  SOLV      1521            0.0000000000
      4677      1532  TIP3      H2            -11.9407803985      -28.7274457466      -10.3882746635  SOLV      1521            0.0000000000
      4678      1533  TIP3      OH2            -3.9992003985      -37.2447857466      -10.1454546635  SOLV      1522            0.0000000000
      4679      1533  TIP3      H1             -3.9499803985      -36.6346657466       -9.4095446635  SOLV      1522            0.0000000000
      4680      1533  TIP3      H2             -3.5736903985      -36.7836957466      -10.8683446635  SOLV      1522            0.0000000000
      4681      1534  TIP3      OH2            -9.5214803985      -34.4520757466      -10.6785946635  SOLV      1523            0.0000000000
      4682      1534  TIP3      H1             -9.3788903985      -35.3983757466      -10.6584346635  SOLV      1523            0.0000000000
      4683      1534  TIP3      H2             -9.6275803985      -34.2450957466      -11.6071046635  SOLV      1523            0.0000000000
      4684      1535  TIP3      OH2           -16.3666503985      -36.3504357466      -13.4061146635  SOLV      1524            0.0000000000
      4685      1535  TIP3      H1            -16.3235403985      -35.4905857466      -13.8244846635  SOLV      1524            0.0000000000
      4686      1535  TIP3      H2            -16.8242403985      -36.9029657466      -14.0397946635  SOLV      1524            0.0000000000
      4687      1536  TIP3      OH2            -8.6443803985      -36.2198757466      -15.0052846635  SOLV      1525            0.0000000000
      4688      1536  TIP3      H1             -7.9979503985      -36.5485557466      -14.3805246635  SOLV      1525            0.0000000000
      4689      1536  TIP3      H2             -8.1344403985      -35.7019757466      -15.6281446635  SOLV      1525            0.0000000000
      4690      1537  TIP3      OH2           -19.7465003985      -33.9538557466      -12.6439746635  SOLV      1526            0.0000000000
      4691      1537  TIP3      H1            -19.0928403985      -34.5036857466      -12.2119646635  SOLV      1526            0.0000000000
      4692      1537  TIP3      H2            -19.7225703985      -34.2279557466      -13.5607746635  SOLV      1526            0.0000000000
      4693      1538  TIP3      OH2           -14.5900503985      -32.4037257466      -13.4288246635  SOLV      1527            0.0000000000
      4694      1538  TIP3      H1            -13.9739503985      -32.9301857466      -12.9194246635  SOLV      1527            0.0000000000
      4695      1538  TIP3      H2            -15.1761703985      -33.0438557466      -13.8324646635  SOLV      1527            0.0000000000
      4696      1539  TIP3      OH2            -3.6077403985      -35.7668657466       -7.9094746635  SOLV      1528            0.0000000000
      4697      1539  TIP3      H1             -4.2962803985      -35.1087957466       -8.0048146635  SOLV      1528            0.0000000000
      4698      1539  TIP3      H2             -3.5922803985      -35.9640757466       -6.9729346635  SOLV      1528            0.0000000000
      4699      1540  TIP3      OH2           -10.1874803985      -27.9324857466      -15.7881246635  SOLV      1529            0.0000000000
      4700      1540  TIP3      H1            -10.4829703985      -28.2552557466      -16.6394346635  SOLV      1529            0.0000000000
      4701      1540  TIP3      H2            -10.5117003985      -27.0328157466      -15.7468646635  SOLV      1529            0.0000000000
      4702      1541  TIP3      OH2           -14.9873203985      -29.7570257466       -9.0446646635  SOLV      1530            0.0000000000
      4703      1541  TIP3      H1            -15.7274103985      -29.1588757466       -8.9411446635  SOLV      1530            0.0000000000
      4704      1541  TIP3      H2            -14.2733703985      -29.2030657466       -9.3603046635  SOLV      1530            0.0000000000
      4705      1542  TIP3      OH2           -17.9627303985      -35.5404157466      -11.3798146635  SOLV      1531            0.0000000000
      4706      1542  TIP3      H1            -17.3491003985      -34.9076557466      -11.0065746635  SOLV      1531            0.0000000000
      4707      1542  TIP3      H2            -17.4506603985      -36.0129157466      -12.0361246635  SOLV      1531            0.0000000000
      4708      1543  TIP3      OH2           -16.5798903985      -27.7927257466       -8.2575146635  SOLV      1532            0.0000000000
      4709      1543  TIP3      H1            -16.5851303985      -26.9133757466       -8.6355846635  SOLV      1532            0.0000000000
      4710      1543  TIP3      H2            -17.4334803985      -27.8763157466       -7.8325246635  SOLV      1532            0.0000000000
      4711      1544  TIP3      OH2           -20.4588003985      -28.1219357466      -17.4755846635  SOLV      1533            0.0000000000
      4712      1544  TIP3      H1            -20.7307103985      -27.8928357466      -18.3642946635  SOLV      1533            0.0000000000
      4713      1544  TIP3      H2            -20.4132303985      -27.2840557466      -17.0150546635  SOLV      1533            0.0000000000
      4714      1545  TIP3      OH2            -6.8338303985      -26.5003457466      -10.7627346635  SOLV      1534            0.0000000000
      4715      1545  TIP3      H1             -7.7754603985      -26.4419557466      -10.6010446635  SOLV      1534            0.0000000000
      4716      1545  TIP3      H2             -6.5572203985      -25.5942957466      -10.8997646635  SOLV      1534            0.0000000000
      4717      1546  TIP3      OH2            -8.5817103985      -24.7189957466      -14.1375746635  SOLV      1535            0.0000000000
      4718      1546  TIP3      H1             -8.1564803985      -25.4262057466      -14.6226146635  SOLV      1535            0.0000000000
      4719      1546  TIP3      H2             -8.2647103985      -23.9177257466      -14.5543546635  SOLV      1535            0.0000000000
      4720      1547  TIP3      OH2            -7.4220603985      -26.8181457466      -15.6289146635  SOLV      1536            0.0000000000
      4721      1547  TIP3      H1             -7.6795803985      -27.5081357466      -16.2403246635  SOLV      1536            0.0000000000
      4722      1547  TIP3      H2             -7.3509803985      -27.2610257466      -14.7833246635  SOLV      1536            0.0000000000
      4723      1548  TIP3      OH2            -5.7360403985      -28.2514757466       -7.1515646635  SOLV      1537            0.0000000000
      4724      1548  TIP3      H1             -5.5964103985      -28.8432257466       -7.8908646635  SOLV      1537            0.0000000000
      4725      1548  TIP3      H2             -5.5687603985      -27.3788857466       -7.5076846635  SOLV      1537            0.0000000000
      4726      1549  TIP3      OH2           -11.2635003985      -31.2895257466      -17.3789646635  SOLV      1538            0.0000000000
      4727      1549  TIP3      H1            -11.9749503985      -30.7545557466      -17.7309146635  SOLV      1538            0.0000000000
      4728      1549  TIP3      H2            -10.5725403985      -31.2343157466      -18.0390746635  SOLV      1538            0.0000000000
      4729      1550  TIP3      OH2           -11.2095803985      -32.8320957466      -20.3404646635  SOLV      1539            0.0000000000
      4730      1550  TIP3      H1            -10.5085903985      -32.8094057466      -19.6890646635  SOLV      1539            0.0000000000
      4731      1550  TIP3      H2            -10.9072903985      -33.4601257466      -20.9965346635  SOLV      1539            0.0000000000
      4732      1551  TIP3      OH2            -3.8941103985      -31.9116757466       -9.0855246635  SOLV      1540            0.0000000000
      4733      1551  TIP3      H1             -4.5467003985      -31.2171157466       -8.9964346635  SOLV      1540            0.0000000000
      4734      1551  TIP3      H2             -3.4290803985      -31.7015857466       -9.8953646635  SOLV      1540            0.0000000000
      4735      1552  TIP3      OH2            -7.8577303985      -31.0801957466      -16.4273746635  SOLV      1541            0.0000000000
      4736      1552  TIP3      H1             -8.5896303985      -30.8518257466      -15.8543146635  SOLV      1541            0.0000000000
      4737      1552  TIP3      H2             -7.4105103985      -31.7939257466      -15.9726246635  SOLV      1541            0.0000000000
      4738      1553  TIP3      OH2            -7.9603803985      -32.9059357466       -7.3596746635  SOLV      1542            0.0000000000
      4739      1553  TIP3      H1             -7.8804703985      -32.1424957466       -6.7878246635  SOLV      1542            0.0000000000
      4740      1553  TIP3      H2             -8.5616103985      -32.6266957466       -8.0501646635  SOLV      1542            0.0000000000
      4741      1554  TIP3      OH2           -16.2123603985      -30.4495757466      -14.5448746635  SOLV      1543            0.0000000000
      4742      1554  TIP3      H1            -16.5428403985      -30.8202357466      -15.3631746635  SOLV      1543            0.0000000000
      4743      1554  TIP3      H2            -15.6239503985      -31.1201757466      -14.1980446635  SOLV      1543            0.0000000000
      4744      1555  TIP3      OH2           -14.8456103985      -27.0215157466      -11.8636546635  SOLV      1544            0.0000000000
      4745      1555  TIP3      H1            -14.9404803985      -27.6002057466      -12.6201946635  SOLV      1544            0.0000000000
      4746      1555  TIP3      H2            -14.1162503985      -27.3929457466      -11.3673746635  SOLV      1544            0.0000000000
      4747      1556  TIP3      OH2           -15.8458103985      -31.6810157466      -10.9113746635  SOLV      1545            0.0000000000
      4748      1556  TIP3      H1            -15.2805603985      -31.5595957466      -11.6742546635  SOLV      1545            0.0000000000
      4749      1556  TIP3      H2            -15.5269203985      -31.0435157466      -10.2725246635  SOLV      1545            0.0000000000
      4750      1557  TIP3      OH2            -9.5365903985      -26.1778257466      -10.1773246635  SOLV      1546            0.0000000000
      4751      1557  TIP3      H1             -9.7769303985      -25.5155157466       -9.5294046635  SOLV      1546            0.0000000000
      4752      1557  TIP3      H2             -9.7347703985      -27.0123057466       -9.7523646635  SOLV      1546            0.0000000000
      4753      1558  TIP3      OH2           -14.9657403985      -27.2817457466       -6.1941846635  SOLV      1547            0.0000000000
      4754      1558  TIP3      H1            -15.2769903985      -26.4994257466       -5.7388646635  SOLV      1547            0.0000000000
      4755      1558  TIP3      H2            -15.6157203985      -27.4348357466       -6.8799846635  SOLV      1547            0.0000000000
      4756      1559  TIP3      OH2            -8.9867803985      -31.9179057466      -18.7422546635  SOLV      1548            0.0000000000
      4757      1559  TIP3      H1             -8.4072303985      -31.7678757466      -17.9953646635  SOLV      1548            0.0000000000
      4758      1559  TIP3      H2             -8.5727803985      -31.4471657466      -19.4656146635  SOLV      1548            0.0000000000
      4759      1560  TIP3      OH2           -18.0457503985      -31.0836357466       -6.9656146635  SOLV      1549            0.0000000000
      4760      1560  TIP3      H1            -17.9754303985      -30.4329557466       -6.2671146635  SOLV      1549            0.0000000000
      4761      1560  TIP3      H2            -18.9365303985      -30.9808857466       -7.3005246635  SOLV      1549            0.0000000000
      4762      1561  TIP3      OH2           -11.2602903985      -25.1810557466      -15.3069446635  SOLV      1550            0.0000000000
      4763      1561  TIP3      H1            -10.7865303985      -24.8854257466      -14.5295246635  SOLV      1550            0.0000000000
      4764      1561  TIP3      H2            -11.8233603985      -24.4428957466      -15.5399846635  SOLV      1550            0.0000000000
      4765      1562  TIP3      OH2           -16.7261503985      -25.2102457466       -5.4308046635  SOLV      1551            0.0000000000
      4766      1562  TIP3      H1            -16.7186203985      -25.3462757466       -6.3782546635  SOLV      1551            0.0000000000
      4767      1562  TIP3      H2            -17.6421103985      -25.3274357466       -5.1788046635  SOLV      1551            0.0000000000
      4768      1563  TIP3      OH2           -17.2220903985      -31.3801457466      -16.9555946635  SOLV      1552            0.0000000000
      4769      1563  TIP3      H1            -17.5139603985      -30.6119757466      -17.4464646635  SOLV      1552            0.0000000000
      4770      1563  TIP3      H2            -17.8965703985      -32.0395257466      -17.1184546635  SOLV      1552            0.0000000000
      4771      1564  TIP3      OH2            -4.0988003985      -25.8016257466      -20.5528946635  SOLV      1553            0.0000000000
      4772      1564  TIP3      H1             -4.0254503985      -24.8626057466      -20.3823646635  SOLV      1553            0.0000000000
      4773      1564  TIP3      H2             -3.1932903985      -26.1067657466      -20.6091646635  SOLV      1553            0.0000000000
      4774      1565  TIP3      OH2           -21.1290803985      -29.0172257466       -8.1406146635  SOLV      1554            0.0000000000
      4775      1565  TIP3      H1            -21.6302403985      -29.0452857466       -8.9556446635  SOLV      1554            0.0000000000
      4776      1565  TIP3      H2            -21.1237103985      -29.9229057466       -7.8308846635  SOLV      1554            0.0000000000
      4777      1566  TIP3      OH2           -21.3788103985      -26.2368457466      -11.2565946635  SOLV      1555            0.0000000000
      4778      1566  TIP3      H1            -20.4327503985      -26.3811457466      -11.2756446635  SOLV      1555            0.0000000000
      4779      1566  TIP3      H2            -21.4911803985      -25.4525657466      -10.7194746635  SOLV      1555            0.0000000000
      4780      1567  TIP3      OH2            -3.1809603985      -25.5708757466       -5.5742246635  SOLV      1556            0.0000000000
      4781      1567  TIP3      H1             -3.2302803985      -26.5260657466       -5.6114646635  SOLV      1556            0.0000000000
      4782      1567  TIP3      H2             -4.0077303985      -25.3033457466       -5.1728446635  SOLV      1556            0.0000000000
      4783      1568  TIP3      OH2           -12.2025603985      -25.9969557466       -6.6980846635  SOLV      1557            0.0000000000
      4784      1568  TIP3      H1            -12.1151003985      -25.1704957466       -6.2231746635  SOLV      1557            0.0000000000
      4785      1568  TIP3      H2            -13.0660503985      -26.3265757466       -6.4491546635  SOLV      1557            0.0000000000
      4786      1569  TIP3      OH2           -11.7879803985      -22.2245857466      -16.8920246635  SOLV      1558            0.0000000000
      4787      1569  TIP3      H1            -11.8633803985      -22.3458657466      -17.8385046635  SOLV      1558            0.0000000000
      4788      1569  TIP3      H2            -11.7551103985      -21.2753157466      -16.7735646635  SOLV      1558            0.0000000000
      4789      1570  TIP3      OH2           -18.1346003985      -23.4358857466      -15.1111246635  SOLV      1559            0.0000000000
      4790      1570  TIP3      H1            -17.9825603985      -23.7838457466      -14.2324746635  SOLV      1559            0.0000000000
      4791      1570  TIP3      H2            -18.9855603985      -23.7921557466      -15.3664046635  SOLV      1559            0.0000000000
      4792      1571  TIP3      OH2            -8.6863803985      -23.0705657466      -19.8897846635  SOLV      1560            0.0000000000
      4793      1571  TIP3      H1             -8.3115403985      -23.8149557466      -20.3605246635  SOLV      1560            0.0000000000
      4794      1571  TIP3      H2             -8.6820103985      -23.3405057466      -18.9714546635  SOLV      1560            0.0000000000
      4795      1572  TIP3      OH2            -9.0175703985      -23.1448557466      -17.1405646635  SOLV      1561            0.0000000000
      4796      1572  TIP3      H1             -9.9525903985      -23.0446657466      -16.9618646635  SOLV      1561            0.0000000000
      4797      1572  TIP3      H2             -8.7373803985      -23.8542557466      -16.5622446635  SOLV      1561            0.0000000000
      4798      1573  TIP3      OH2            -6.0289803985      -34.0776257466       -5.0940046635  SOLV      1562            0.0000000000
      4799      1573  TIP3      H1             -6.4363003985      -33.5970657466       -5.8146746635  SOLV      1562            0.0000000000
      4800      1573  TIP3      H2             -5.9884103985      -34.9830257466       -5.4019246635  SOLV      1562            0.0000000000
      4801      1574  TIP3      OH2           -18.8800303985      -27.6936857466       -7.0973346635  SOLV      1563            0.0000000000
      4802      1574  TIP3      H1            -18.6639003985      -28.0551257466       -6.2377546635  SOLV      1563            0.0000000000
      4803      1574  TIP3      H2            -19.7355603985      -28.0683057466       -7.3069846635  SOLV      1563            0.0000000000
      4804      1575  TIP3      OH2            -8.2719603985      -35.7460757466       -6.8737646635  SOLV      1564            0.0000000000
      4805      1575  TIP3      H1             -8.7860103985      -35.8718557466       -6.0761646635  SOLV      1564            0.0000000000
      4806      1575  TIP3      H2             -8.4274903985      -34.8337657466       -7.1181446635  SOLV      1564            0.0000000000
      4807      1576  TIP3      OH2            -7.5094703985      -30.8850757466      -21.1124646635  SOLV      1565            0.0000000000
      4808      1576  TIP3      H1             -7.4673903985      -31.1076857466      -22.0424646635  SOLV      1565            0.0000000000
      4809      1576  TIP3      H2             -6.6602603985      -30.4863657466      -20.9224746635  SOLV      1565            0.0000000000
      4810      1577  TIP3      OH2           -16.1702203985      -34.2581857466      -10.0068946635  SOLV      1566            0.0000000000
      4811      1577  TIP3      H1            -16.8120103985      -34.2984557466       -9.2978846635  SOLV      1566            0.0000000000
      4812      1577  TIP3      H2            -16.1330203985      -33.3317157466      -10.2445946635  SOLV      1566            0.0000000000
      4813      1578  TIP3      OH2           -16.1733103985      -34.0371757466      -15.0948946635  SOLV      1567            0.0000000000
      4814      1578  TIP3      H1            -17.0660203985      -34.3775657466      -15.1535146635  SOLV      1567            0.0000000000
      4815      1578  TIP3      H2            -15.7226503985      -34.4140857466      -15.8505746635  SOLV      1567            0.0000000000
      4816      1579  TIP3      OH2           -11.5356003985      -33.4455057466       -4.7897446635  SOLV      1568            0.0000000000
      4817      1579  TIP3      H1            -12.0982203985      -34.1503457466       -4.4689646635  SOLV      1568            0.0000000000
      4818      1579  TIP3      H2            -10.7092603985      -33.5663157466       -4.3219846635  SOLV      1568            0.0000000000
      4819      1580  TIP3      OH2            -9.6329903985      -34.1751057466      -13.4638446635  SOLV      1569            0.0000000000
      4820      1580  TIP3      H1             -9.8285403985      -33.5694257466      -14.1787846635  SOLV      1569            0.0000000000
      4821      1580  TIP3      H2             -9.4517303985      -35.0085857466      -13.8982146635  SOLV      1569            0.0000000000
      4822      1581  TIP3      OH2           -18.4201703985      -33.9378357466       -8.1396946635  SOLV      1570            0.0000000000
      4823      1581  TIP3      H1            -18.4582303985      -33.5376757466       -7.2709846635  SOLV      1570            0.0000000000
      4824      1581  TIP3      H2            -18.9110603985      -34.7545957466       -8.0494046635  SOLV      1570            0.0000000000
      4825      1582  TIP3      OH2           -15.0544303985      -36.5636057466      -21.3410946635  SOLV      1571            0.0000000000
      4826      1582  TIP3      H1            -15.4853603985      -37.0085957466      -20.6113546635  SOLV      1571            0.0000000000
      4827      1582  TIP3      H2            -15.7725603985      -36.1919757466      -21.8533446635  SOLV      1571            0.0000000000
      4828      1583  TIP3      OH2           -10.3690703985      -32.5369757466       -8.7926046635  SOLV      1572            0.0000000000
      4829      1583  TIP3      H1            -10.0455903985      -33.1680057466       -9.4355546635  SOLV      1572            0.0000000000
      4830      1583  TIP3      H2            -10.8091403985      -33.0717557466       -8.1318646635  SOLV      1572            0.0000000000
      4831      1584  TIP3      OH2           -18.7634403985      -34.9807957466      -15.1817246635  SOLV      1573            0.0000000000
      4832      1584  TIP3      H1            -19.6526403985      -34.8812457466      -15.5217646635  SOLV      1573            0.0000000000
      4833      1584  TIP3      H2            -18.4669503985      -35.8224957466      -15.5279346635  SOLV      1573            0.0000000000
      4834      1585  TIP3      OH2           -15.1102603985      -34.9805357466      -17.5252646635  SOLV      1574            0.0000000000
      4835      1585  TIP3      H1            -14.1787103985      -34.8515357466      -17.3469546635  SOLV      1574            0.0000000000
      4836      1585  TIP3      H2            -15.3252303985      -34.3111057466      -18.1747946635  SOLV      1574            0.0000000000
      4837      1586  TIP3      OH2           -16.4362403985      -33.7863157466      -19.9586546635  SOLV      1575            0.0000000000
      4838      1586  TIP3      H1            -16.9787303985      -34.1659357466      -20.6498946635  SOLV      1575            0.0000000000
      4839      1586  TIP3      H2            -15.6027503985      -33.5918457466      -20.3872446635  SOLV      1575            0.0000000000
      4840      1587  TIP3      OH2            -5.8990803985      -21.7032557466       -4.4675446635  SOLV      1576            0.0000000000
      4841      1587  TIP3      H1             -5.6992103985      -21.2790657466       -5.3020146635  SOLV      1576            0.0000000000
      4842      1587  TIP3      H2             -5.2437103985      -21.3594357466       -3.8605046635  SOLV      1576            0.0000000000
      4843      1588  TIP3      OH2           -18.3011003985      -29.2291257466       -4.8594946635  SOLV      1577            0.0000000000
      4844      1588  TIP3      H1            -17.5688603985      -28.9745357466       -4.2980446635  SOLV      1577            0.0000000000
      4845      1588  TIP3      H2            -19.0812303985      -29.0245857466       -4.3439546635  SOLV      1577            0.0000000000
      4846      1589  TIP3      OH2           -12.2718103985      -33.8221257466      -12.1215246635  SOLV      1578            0.0000000000
      4847      1589  TIP3      H1            -11.7074703985      -34.3684657466      -12.6685646635  SOLV      1578            0.0000000000
      4848      1589  TIP3      H2            -12.4194703985      -34.3439357466      -11.3327646635  SOLV      1578            0.0000000000
      4849      1590  TIP3      OH2           -13.6452203985      -35.4335157466       -9.7074846635  SOLV      1579            0.0000000000
      4850      1590  TIP3      H1            -14.4806903985      -34.9795657466       -9.5972446635  SOLV      1579            0.0000000000
      4851      1590  TIP3      H2            -13.1211603985      -35.1576657466       -8.9554946635  SOLV      1579            0.0000000000
      4852      1591  TIP3      OH2           -13.1009603985      -29.2207457466      -18.0228446635  SOLV      1580            0.0000000000
      4853      1591  TIP3      H1            -13.8458603985      -29.7282157466      -18.3450546635  SOLV      1580            0.0000000000
      4854      1591  TIP3      H2            -13.2352403985      -29.1719457466      -17.0763646635  SOLV      1580            0.0000000000
      4855      1592  TIP3      OH2            -5.9510703985      -30.0879257466       -9.2360846635  SOLV      1581            0.0000000000
      4856      1592  TIP3      H1             -5.3091903985      -29.6312957466       -9.7798646635  SOLV      1581            0.0000000000
      4857      1592  TIP3      H2             -6.7813803985      -29.9746857466       -9.6986746635  SOLV      1581            0.0000000000
      4858      1593  TIP3      OH2            -9.2032803985      -36.4067557466      -19.8235846635  SOLV      1582            0.0000000000
      4859      1593  TIP3      H1            -10.1418603985      -36.2951957466      -19.9747046635  SOLV      1582            0.0000000000
      4860      1593  TIP3      H2             -8.9060703985      -35.5500657466      -19.5170146635  SOLV      1582            0.0000000000
      4861      1594  TIP3      OH2           -11.5817503985      -29.0364157466       -6.7859346635  SOLV      1583            0.0000000000
      4862      1594  TIP3      H1            -11.9271403985      -29.4181757466       -5.9789746635  SOLV      1583            0.0000000000
      4863      1594  TIP3      H2            -11.7817403985      -28.1030557466       -6.7146446635  SOLV      1583            0.0000000000
      4864      1595  TIP3      OH2            -8.4849303985      -34.5394857466      -18.1628446635  SOLV      1584            0.0000000000
      4865      1595  TIP3      H1             -7.5930303985      -34.6769857466      -17.8437246635  SOLV      1584            0.0000000000
      4866      1595  TIP3      H2             -8.4285703985      -33.7488757466      -18.6994946635  SOLV      1584            0.0000000000
      4867      1596  TIP3      OH2           -17.9761303985      -29.9257457466      -12.2530546635  SOLV      1585            0.0000000000
      4868      1596  TIP3      H1            -17.2314103985      -29.9281757466      -12.8544046635  SOLV      1585            0.0000000000
      4869      1596  TIP3      H2            -17.8984703985      -30.7493657466      -11.7715446635  SOLV      1585            0.0000000000
      4870      1597  TIP3      OH2           -10.9755503985      -27.7623157466      -18.9973846635  SOLV      1586            0.0000000000
      4871      1597  TIP3      H1            -11.2707103985      -26.9355257466      -18.6159046635  SOLV      1586            0.0000000000
      4872      1597  TIP3      H2            -11.6785503985      -28.3816257466      -18.8012446635  SOLV      1586            0.0000000000
      4873      1598  TIP3      OH2           -20.9681603985      -31.4650557466       -6.9382046635  SOLV      1587            0.0000000000
      4874      1598  TIP3      H1            -20.7453003985      -31.8830957466       -6.1064546635  SOLV      1587            0.0000000000
      4875      1598  TIP3      H2            -21.5701503985      -32.0775557466       -7.3609246635  SOLV      1587            0.0000000000
      4876      1599  TIP3      OH2           -13.9516703985      -31.9480657466       -4.7252346635  SOLV      1588            0.0000000000
      4877      1599  TIP3      H1            -14.2475903985      -32.1137657466       -5.6203246635  SOLV      1588            0.0000000000
      4878      1599  TIP3      H2            -13.0201503985      -32.1680357466       -4.7358446635  SOLV      1588            0.0000000000
      4879      1600  TIP3      OH2            -9.3313903985      -26.5748657466       -6.8354346635  SOLV      1589            0.0000000000
      4880      1600  TIP3      H1            -10.2319603985      -26.3916057466       -7.1030446635  SOLV      1589            0.0000000000
      4881      1600  TIP3      H2             -9.2972803985      -26.3159357466       -5.9145546635  SOLV      1589            0.0000000000
      4882      1601  TIP3      OH2            -3.6000603985      -34.3300757466      -18.4681746635  SOLV      1590            0.0000000000
      4883      1601  TIP3      H1             -4.1544303985      -34.7262757466      -19.1404246635  SOLV      1590            0.0000000000
      4884      1601  TIP3      H2             -3.4997003985      -33.4195557466      -18.7458446635  SOLV      1590            0.0000000000
      4885      1602  TIP3      OH2            -3.6368603985      -28.5299057466       -5.6310246635  SOLV      1591            0.0000000000
      4886      1602  TIP3      H1             -4.4880103985      -28.2915257466       -5.9983846635  SOLV      1591            0.0000000000
      4887      1602  TIP3      H2             -3.0465203985      -28.5465857466       -6.3843146635  SOLV      1591            0.0000000000
      4888      1603  TIP3      OH2            -5.3048903985      -25.5440357466      -18.0029646635  SOLV      1592            0.0000000000
      4889      1603  TIP3      H1             -5.6777803985      -26.3696557466      -17.6939046635  SOLV      1592            0.0000000000
      4890      1603  TIP3      H2             -5.0275403985      -25.7270957466      -18.9006246635  SOLV      1592            0.0000000000
      4891      1604  TIP3      OH2            -8.1445003985      -30.7360857466      -10.9817746635  SOLV      1593            0.0000000000
      4892      1604  TIP3      H1             -9.0728103985      -30.9678957466      -11.0088446635  SOLV      1593            0.0000000000
      4893      1604  TIP3      H2             -7.6933903985      -31.5131057466      -11.3118946635  SOLV      1593            0.0000000000
      4894      1605  TIP3      OH2           -15.6011903985      -26.4079257466      -14.8489046635  SOLV      1594            0.0000000000
      4895      1605  TIP3      H1            -15.0739703985      -25.6344857466      -15.0490246635  SOLV      1594            0.0000000000
      4896      1605  TIP3      H2            -16.4813403985      -26.1830057466      -15.1505046635  SOLV      1594            0.0000000000
      4897      1606  TIP3      OH2           -19.8464203985      -31.5455157466      -20.2616646635  SOLV      1595            0.0000000000
      4898      1606  TIP3      H1            -19.2304303985      -30.9187957466      -19.8821846635  SOLV      1595            0.0000000000
      4899      1606  TIP3      H2            -20.7081603985      -31.2295357466      -19.9900146635  SOLV      1595            0.0000000000
      4900      1607  TIP3      OH2           -14.1739603985      -28.7449357466      -15.2724746635  SOLV      1596            0.0000000000
      4901      1607  TIP3      H1            -14.4149603985      -27.8194957466      -15.2309446635  SOLV      1596            0.0000000000
      4902      1607  TIP3      H2            -14.9146003985      -29.2038057466      -14.8760846635  SOLV      1596            0.0000000000
      4903      1608  TIP3      OH2           -13.6593003985      -24.5955757466       -8.9573646635  SOLV      1597            0.0000000000
      4904      1608  TIP3      H1            -13.2968303985      -23.7410157466       -9.1909246635  SOLV      1597            0.0000000000
      4905      1608  TIP3      H2            -13.1277803985      -24.8874157466       -8.2167346635  SOLV      1597            0.0000000000
      4906      1609  TIP3      OH2           -15.4908803985      -23.7231757466      -15.7272546635  SOLV      1598            0.0000000000
      4907      1609  TIP3      H1            -16.4408303985      -23.6174357466      -15.6759246635  SOLV      1598            0.0000000000
      4908      1609  TIP3      H2            -15.1390703985      -22.9024357466      -15.3825046635  SOLV      1598            0.0000000000
      4909      1610  TIP3      OH2           -10.1152203985      -28.4965057466       -9.2568046635  SOLV      1599            0.0000000000
      4910      1610  TIP3      H1            -10.5410903985      -28.7243357466       -8.4304046635  SOLV      1599            0.0000000000
      4911      1610  TIP3      H2             -9.5346403985      -29.2353257466       -9.4392746635  SOLV      1599            0.0000000000
      4912      1611  TIP3      OH2            -7.9123303985      -27.5674557466      -20.1829046635  SOLV      1600            0.0000000000
      4913      1611  TIP3      H1             -7.5590203985      -27.9474757466      -19.3785546635  SOLV      1600            0.0000000000
      4914      1611  TIP3      H2             -8.8609803985      -27.6609757466      -20.0959746635  SOLV      1600            0.0000000000
      4915      1612  TIP3      OH2            -7.4568003985      -23.9445557466       -6.7873246635  SOLV      1601            0.0000000000
      4916      1612  TIP3      H1             -8.0584803985      -24.5002657466       -7.2826946635  SOLV      1601            0.0000000000
      4917      1612  TIP3      H2             -7.1754303985      -23.2775757466       -7.4135846635  SOLV      1601            0.0000000000
      4918      1613  TIP3      OH2            -3.4088903985      -23.0882057466      -19.9818846635  SOLV      1602            0.0000000000
      4919      1613  TIP3      H1             -2.6651003985      -22.5021557466      -20.1217246635  SOLV      1602            0.0000000000
      4920      1613  TIP3      H2             -4.1030803985      -22.5196257466      -19.6486446635  SOLV      1602            0.0000000000
      4921      1614  TIP3      OH2           -19.3342103985      -36.7117857466       -7.3800646635  SOLV      1603            0.0000000000
      4922      1614  TIP3      H1            -20.2269803985      -36.3732457466       -7.4476646635  SOLV      1603            0.0000000000
      4923      1614  TIP3      H2            -19.4329303985      -37.5671757466       -6.9619846635  SOLV      1603            0.0000000000
      4924      1615  TIP3      OH2            -7.0464003985      -28.8952557466      -17.9561146635  SOLV      1604            0.0000000000
      4925      1615  TIP3      H1             -7.3236403985      -29.6233257466      -17.4000046635  SOLV      1604            0.0000000000
      4926      1615  TIP3      H2             -6.1191003985      -28.7760557466      -17.7508546635  SOLV      1604            0.0000000000
      4927      1616  TIP3      OH2           -19.6830103985      -24.9073457466       -8.9451246635  SOLV      1605            0.0000000000
      4928      1616  TIP3      H1            -19.4659803985      -25.8391057466       -8.9761546635  SOLV      1605            0.0000000000
      4929      1616  TIP3      H2            -19.4366603985      -24.6328457466       -8.0618446635  SOLV      1605            0.0000000000
      4930      1617  TIP3      OH2           -13.8215503985      -26.4558457466      -21.7359046635  SOLV      1606            0.0000000000
      4931      1617  TIP3      H1            -13.5825703985      -27.2040357466      -22.2830146635  SOLV      1606            0.0000000000
      4932      1617  TIP3      H2            -14.0904203985      -26.8436757466      -20.9031246635  SOLV      1606            0.0000000000
      4933      1618  TIP3      OH2           -14.8844903985      -26.8854657466      -19.2796446635  SOLV      1607            0.0000000000
      4934      1618  TIP3      H1            -14.7376903985      -27.4054857466      -18.4895546635  SOLV      1607            0.0000000000
      4935      1618  TIP3      H2            -14.8873203985      -25.9787057466      -18.9730546635  SOLV      1607            0.0000000000
      4936      1619  TIP3      OH2           -18.4313803985      -29.6331357466      -18.7691046635  SOLV      1608            0.0000000000
      4937      1619  TIP3      H1            -19.1174503985      -29.2808857466      -18.2021346635  SOLV      1608            0.0000000000
      4938      1619  TIP3      H2            -17.9085903985      -28.8701757466      -19.0156746635  SOLV      1608            0.0000000000
      4939      1620  TIP3      OH2           -12.1467703985      -25.1881057466      -18.5302246635  SOLV      1609            0.0000000000
      4940      1620  TIP3      H1            -12.9631603985      -24.6911357466      -18.4777946635  SOLV      1609            0.0000000000
      4941      1620  TIP3      H2            -11.6171403985      -24.7127557466      -19.1703446635  SOLV      1609            0.0000000000
      4942      1621  TIP3      OH2           -12.0797503985      -34.6044357466       -7.3734746635  SOLV      1610            0.0000000000
      4943      1621  TIP3      H1            -11.9607203985      -34.0308957466       -6.6164346635  SOLV      1610            0.0000000000
      4944      1621  TIP3      H2            -11.4242903985      -35.2924957466       -7.2586946635  SOLV      1610            0.0000000000
      4945      1622  TIP3      OH2           -14.8084603985      -24.1443857466      -18.5485346635  SOLV      1611            0.0000000000
      4946      1622  TIP3      H1            -14.6475903985      -23.3446357466      -19.0492746635  SOLV      1611            0.0000000000
      4947      1622  TIP3      H2            -15.0056803985      -23.8377857466      -17.6634746635  SOLV      1611            0.0000000000
      4948      1623  TIP3      OH2            -5.8751703985      -36.6974057466       -6.5385046635  SOLV      1612            0.0000000000
      4949      1623  TIP3      H1             -6.7915903985      -36.4352357466       -6.6261346635  SOLV      1612            0.0000000000
      4950      1623  TIP3      H2             -5.5396703985      -36.7005057466       -7.4349746635  SOLV      1612            0.0000000000
      4951      1624  TIP3      OH2            -7.2730703985      -32.9473057466      -12.4427746635  SOLV      1613            0.0000000000
      4952      1624  TIP3      H1             -8.0706303985      -33.3622857466      -12.7712746635  SOLV      1613            0.0000000000
      4953      1624  TIP3      H2             -6.8279603985      -33.6379357466      -11.9517246635  SOLV      1613            0.0000000000
      4954      1625  TIP3      OH2           -17.8154903985      -27.0192457466      -19.8723246635  SOLV      1614            0.0000000000
      4955      1625  TIP3      H1            -17.2233403985      -26.3197657466      -19.5960846635  SOLV      1614            0.0000000000
      4956      1625  TIP3      H2            -17.3561903985      -27.4522957466      -20.5918646635  SOLV      1614            0.0000000000
      4957      1626  TIP3      OH2            -6.1866103985      -23.6910557466      -10.8204246635  SOLV      1615            0.0000000000
      4958      1626  TIP3      H1             -6.3421803985      -23.0126157466      -11.4774946635  SOLV      1615            0.0000000000
      4959      1626  TIP3      H2             -5.2539703985      -23.6191257466      -10.6173646635  SOLV      1615            0.0000000000
      4960      1627  TIP3      OH2           -19.7610403985      -25.6325757466      -15.9227046635  SOLV      1616            0.0000000000
      4961      1627  TIP3      H1            -20.5931803985      -25.1603057466      -15.8955646635  SOLV      1616            0.0000000000
      4962      1627  TIP3      H2            -19.2152103985      -25.1228157466      -16.5213946635  SOLV      1616            0.0000000000
      4963      1628  TIP3      OH2           -20.4726703985      -23.0202057466       -4.5929046635  SOLV      1617            0.0000000000
      4964      1628  TIP3      H1            -19.9324503985      -23.2368057466       -3.8329846635  SOLV      1617            0.0000000000
      4965      1628  TIP3      H2            -20.9538703985      -23.8256057466       -4.7826546635  SOLV      1617            0.0000000000
      4966      1629  TIP3      OH2           -15.8753303985      -24.1007657466       -2.9724846635  SOLV      1618            0.0000000000
      4967      1629  TIP3      H1            -15.1076103985      -24.5596857466       -2.6315646635  SOLV      1618            0.0000000000
      4968      1629  TIP3      H2            -15.8967103985      -24.3267857466       -3.9023646635  SOLV      1618            0.0000000000
      4969      1630  TIP3      OH2           -11.7833703985      -24.5927057466      -21.5973046635  SOLV      1619            0.0000000000
      4970      1630  TIP3      H1            -12.4272703985      -25.2238457466      -21.2759346635  SOLV      1619            0.0000000000
      4971      1630  TIP3      H2            -11.0215403985      -25.1239057466      -21.8289546635  SOLV      1619            0.0000000000
      4972      1631  TIP3      OH2            -9.2984603985      -25.7206557466       -4.2433346635  SOLV      1620            0.0000000000
      4973      1631  TIP3      H1             -9.6495103985      -26.5773557466       -4.0002946635  SOLV      1620            0.0000000000
      4974      1631  TIP3      H2             -8.5721403985      -25.5779857466       -3.6364346635  SOLV      1620            0.0000000000
      4975      1632  TIP3      OH2            -7.1790803985      -24.7757157466      -21.3635046635  SOLV      1621            0.0000000000
      4976      1632  TIP3      H1             -6.8960403985      -25.5701957466      -20.9108146635  SOLV      1621            0.0000000000
      4977      1632  TIP3      H2             -6.4392903985      -24.5426157466      -21.9243946635  SOLV      1621            0.0000000000
      4978      1633  TIP3      OH2           -20.5657203985      -29.2097957466       -3.6384746635  SOLV      1622            0.0000000000
      4979      1633  TIP3      H1            -20.4216703985      -30.1117257466       -3.9248046635  SOLV      1622            0.0000000000
      4980      1633  TIP3      H2            -21.3379803985      -28.9235857466       -4.1262446635  SOLV      1622            0.0000000000
      4981      1634  TIP3      OH2           -16.2243503985      -28.8662257466      -21.5060146635  SOLV      1623            0.0000000000
      4982      1634  TIP3      H1            -16.1599403985      -29.6602657466      -20.9753746635  SOLV      1623            0.0000000000
      4983      1634  TIP3      H2            -15.5714303985      -28.9849457466      -22.1958146635  SOLV      1623            0.0000000000
      4984      1635  TIP3      OH2           -13.9101103985      -29.2399857466       -4.2058346635  SOLV      1624            0.0000000000
      4985      1635  TIP3      H1            -14.2387303985      -28.9691757466       -5.0630946635  SOLV      1624            0.0000000000
      4986      1635  TIP3      H2            -13.7582903985      -30.1810057466       -4.2933346635  SOLV      1624            0.0000000000
      4987      1636  TIP3      OH2           -10.8720103985      -27.8190557466      -21.7702146635  SOLV      1625            0.0000000000
      4988      1636  TIP3      H1            -11.1406003985      -27.6388457466      -20.8693246635  SOLV      1625            0.0000000000
      4989      1636  TIP3      H2            -11.0784503985      -28.7444357466      -21.9016346635  SOLV      1625            0.0000000000
      4990      1637  TIP3      OH2            -8.1755903985      -29.3242557466       -6.8226046635  SOLV      1626            0.0000000000
      4991      1637  TIP3      H1             -7.4301103985      -28.7358857466       -6.9422046635  SOLV      1626            0.0000000000
      4992      1637  TIP3      H2             -8.9329103985      -28.7422857466       -6.7592946635  SOLV      1626            0.0000000000
      4993      1638  TIP3      OH2           -19.7330703985      -32.0094657466       -4.2185446635  SOLV      1627            0.0000000000
      4994      1638  TIP3      H1            -19.3249503985      -32.8668057466       -4.3394846635  SOLV      1627            0.0000000000
      4995      1638  TIP3      H2            -19.9933103985      -31.9953357466       -3.2975146635  SOLV      1627            0.0000000000
      4996      1639  TIP3      OH2           -15.0749703985      -30.8936057466      -19.2002146635  SOLV      1628            0.0000000000
      4997      1639  TIP3      H1            -15.5347703985      -31.3777757466      -18.5143646635  SOLV      1628            0.0000000000
      4998      1639  TIP3      H2            -14.8201003985      -31.5620657466      -19.8361646635  SOLV      1628            0.0000000000
      4999      1640  TIP3      OH2           -15.7860403985      -33.0008957466       -6.8442546635  SOLV      1629            0.0000000000
      5000      1640  TIP3      H1            -16.4044303985      -32.3262357466       -6.5637846635  SOLV      1629            0.0000000000
      5001      1640  TIP3      H2            -15.4419203985      -32.6795057466       -7.6776346635  SOLV      1629            0.0000000000
      5002      1641  TIP3      OH2           -14.0039303985      -32.6504257466      -20.9378946635  SOLV      1630            0.0000000000
      5003      1641  TIP3      H1            -14.1844303985      -32.8053057466      -21.8650646635  SOLV      1630            0.0000000000
      5004      1641  TIP3      H2            -13.0538803985      -32.5425557466      -20.8931046635  SOLV      1630            0.0000000000
      5005      1642  TIP3      OH2           -10.7662203985      -30.5293657466       -3.5667746635  SOLV      1631            0.0000000000
      5006      1642  TIP3      H1             -9.8131003985      -30.4454557466       -3.5941746635  SOLV      1631            0.0000000000
      5007      1642  TIP3      H2            -10.9267603985      -31.2411857466       -2.9472846635  SOLV      1631            0.0000000000
      5008      1643  TIP3      OH2            -4.6141003985      -30.2960057466      -21.4920846635  SOLV      1632            0.0000000000
      5009      1643  TIP3      H1             -4.8876203985      -30.7204557466      -22.3052546635  SOLV      1632            0.0000000000
      5010      1643  TIP3      H2             -4.5746903985      -29.3645557466      -21.7090446635  SOLV      1632            0.0000000000
      5011      1644  TIP3      OH2           -15.4466703985      -35.6458157466       -5.7619446635  SOLV      1633            0.0000000000
      5012      1644  TIP3      H1            -15.2965803985      -36.3746857466       -6.3639746635  SOLV      1633            0.0000000000
      5013      1644  TIP3      H2            -15.4444303985      -34.8686457466       -6.3207246635  SOLV      1633            0.0000000000
      5014      1645  TIP3      OH2           -13.4522603985      -31.8366157466       -8.0296846635  SOLV      1634            0.0000000000
      5015      1645  TIP3      H1            -12.7017803985      -31.9928657466       -8.6029046635  SOLV      1634            0.0000000000
      5016      1645  TIP3      H2            -13.7914303985      -30.9849557466       -8.3051346635  SOLV      1634            0.0000000000
      5017      1646  TIP3      OH2            -9.0366403985      -34.0214357466       -3.0011546635  SOLV      1635            0.0000000000
      5018      1646  TIP3      H1             -8.8445103985      -34.9524957466       -3.1127046635  SOLV      1635            0.0000000000
      5019      1646  TIP3      H2             -8.1790103985      -33.5964857466       -3.0116146635  SOLV      1635            0.0000000000
      5020      1647  TIP3      OH2            -7.7199203985      -31.2329157466       -4.9238846635  SOLV      1636            0.0000000000
      5021      1647  TIP3      H1             -8.0014203985      -30.5234557466       -5.5015046635  SOLV      1636            0.0000000000
      5022      1647  TIP3      H2             -6.7774903985      -31.3056157466       -5.0747646635  SOLV      1636            0.0000000000
      5023      1648  TIP3      OH2           -16.9680403985      -34.4474657466       -3.8503846635  SOLV      1637            0.0000000000
      5024      1648  TIP3      H1            -17.7351403985      -34.9799857466       -4.0606246635  SOLV      1637            0.0000000000
      5025      1648  TIP3      H2            -16.2891403985      -34.7574257466       -4.4497546635  SOLV      1637            0.0000000000
      5026      1649  TIP3      OH2           -12.9645003985      -35.4981257466       -4.2740046635  SOLV      1638            0.0000000000
      5027      1649  TIP3      H1            -13.1999603985      -35.7174557466       -3.3725146635  SOLV      1638            0.0000000000
      5028      1649  TIP3      H2            -13.7478103985      -35.7050057466       -4.7837546635  SOLV      1638            0.0000000000
      5029      1650  TIP3      OH2           -10.2488403985      -36.3707757466       -5.1986546635  SOLV      1639            0.0000000000
      5030      1650  TIP3      H1            -11.1963003985      -36.3388057466       -5.0663246635  SOLV      1639            0.0000000000
      5031      1650  TIP3      H2             -9.9361703985      -36.9960657466       -4.5448346635  SOLV      1639            0.0000000000
      5032      1651  TIP3      OH2           -18.7877603985      -36.5270857466       -4.1459146635  SOLV      1640            0.0000000000
      5033      1651  TIP3      H1            -18.5760203985      -37.2334757466       -4.7561646635  SOLV      1640            0.0000000000
      5034      1651  TIP3      H2            -18.8990103985      -36.9644857466       -3.3017946635  SOLV      1640            0.0000000000
      5035      1652  TIP3      OH2           -14.1067603985      -21.9600557466      -19.9365346635  SOLV      1641            0.0000000000
      5036      1652  TIP3      H1            -13.1736903985      -21.8021857466      -19.7926946635  SOLV      1641            0.0000000000
      5037      1652  TIP3      H2            -14.3708803985      -21.2847557466      -20.5613846635  SOLV      1641            0.0000000000
      5038      1653  TIP3      OH2           -20.5382703985      -27.3236757466      -20.4537246635  SOLV      1642            0.0000000000
      5039      1653  TIP3      H1            -19.6243503985      -27.2447857466      -20.1803346635  SOLV      1642            0.0000000000
      5040      1653  TIP3      H2            -20.5309603985      -28.0107157466      -21.1201646635  SOLV      1642            0.0000000000
      5041      1654  TIP3      OH2           -21.8892103985      -21.9308257466      -15.3763346635  SOLV      1643            0.0000000000
      5042      1654  TIP3      H1            -22.5365003985      -22.3926557466      -15.9092146635  SOLV      1643            0.0000000000
      5043      1654  TIP3      H2            -21.5347503985      -22.6024957466      -14.7937146635  SOLV      1643            0.0000000000
      5044      1655  TIP3      OH2           -21.0192903985      -23.8501257466      -13.5717146635  SOLV      1644            0.0000000000
      5045      1655  TIP3      H1            -21.3536103985      -24.7303957466      -13.3996946635  SOLV      1644            0.0000000000
      5046      1655  TIP3      H2            -20.7970503985      -23.5046257466      -12.7071546635  SOLV      1644            0.0000000000
      5047      1656  TIP3      OH2            -3.4708103985      -23.0404857466      -10.5912346635  SOLV      1645            0.0000000000
      5048      1656  TIP3      H1             -3.4921403985      -22.8556457466       -9.6522946635  SOLV      1645            0.0000000000
      5049      1656  TIP3      H2             -2.7801903985      -22.4720857466      -10.9320946635  SOLV      1645            0.0000000000
      5050      1657  TIP3      OH2            -3.9075203985      -23.4733757466       -7.6693246635  SOLV      1646            0.0000000000
      5051      1657  TIP3      H1             -4.3946503985      -24.2089657466       -8.0405846635  SOLV      1646            0.0000000000
      5052      1657  TIP3      H2             -3.3582503985      -23.8669857466       -6.9913846635  SOLV      1646            0.0000000000
      5053      1658  TIP3      OH2            -5.4567903985      -27.6835657466       -3.0312946635  SOLV      1647            0.0000000000
      5054      1658  TIP3      H1             -6.3226803985      -27.7885957466       -2.6370646635  SOLV      1647            0.0000000000
      5055      1658  TIP3      H2             -5.0802003985      -26.9252357466       -2.5848246635  SOLV      1647            0.0000000000
      5056      1659  TIP3      OH2            -4.1558203985      -29.4271957466      -17.5170446635  SOLV      1648            0.0000000000
      5057      1659  TIP3      H1             -3.3056803985      -29.0061057466      -17.3898846635  SOLV      1648            0.0000000000
      5058      1659  TIP3      H2             -4.1503103985      -30.1671857466      -16.9099046635  SOLV      1648            0.0000000000
      5059      1660  TIP3      OH2            -3.7612603985      -31.3734557466      -15.6934746635  SOLV      1649            0.0000000000
      5060      1660  TIP3      H1             -4.4878003985      -31.8531957466      -15.2957146635  SOLV      1649            0.0000000000
      5061      1660  TIP3      H2             -3.1799303985      -31.1679857466      -14.9613146635  SOLV      1649            0.0000000000
      5062      1661  TIP3      OH2            -4.0021403985      -28.5887057466      -10.7457146635  SOLV      1650            0.0000000000
      5063      1661  TIP3      H1             -3.1687203985      -28.9667057466      -11.0263546635  SOLV      1650            0.0000000000
      5064      1661  TIP3      H2             -3.8901103985      -27.6455857466      -10.8648046635  SOLV      1650            0.0000000000
      5065      1662  TIP3      OH2            -5.5159103985      -25.7109557466       -8.4388746635  SOLV      1651            0.0000000000
      5066      1662  TIP3      H1             -6.1633803985      -25.3858057466       -7.8133546635  SOLV      1651            0.0000000000
      5067      1662  TIP3      H2             -6.0335103985      -26.1511857466       -9.1130446635  SOLV      1651            0.0000000000
      5068      1663  TIP3      OH2            -3.4929503985      -31.4726057466      -19.3023446635  SOLV      1652            0.0000000000
      5069      1663  TIP3      H1             -4.0148403985      -31.1161957466      -20.0212546635  SOLV      1652            0.0000000000
      5070      1663  TIP3      H2             -3.5260303985      -30.7978257466      -18.6242546635  SOLV      1652            0.0000000000
      5071      1664  TIP3      OH2            -5.1440503985      -34.2330457466      -20.7516346635  SOLV      1653            0.0000000000
      5072      1664  TIP3      H1             -5.0476103985      -33.5663457466      -21.4316646635  SOLV      1653            0.0000000000
      5073      1664  TIP3      H2             -5.2840903985      -35.0484157466      -21.2330846635  SOLV      1653            0.0000000000
      5074      1665  TIP3      OH2            -5.9745803985      -32.8528057466      -15.1306046635  SOLV      1654            0.0000000000
      5075      1665  TIP3      H1             -6.1247003985      -33.7979457466      -15.1508246635  SOLV      1654            0.0000000000
      5076      1665  TIP3      H2             -6.3281303985      -32.5716657466      -14.2866946635  SOLV      1654            0.0000000000
      5077      1666  TIP3      OH2           -20.9393403985      -30.7745857466      -11.1202246635  SOLV      1655            0.0000000000
      5078      1666  TIP3      H1            -20.7550503985      -30.8564157466      -12.0559346635  SOLV      1655            0.0000000000
      5079      1666  TIP3      H2            -20.0900503985      -30.8988857466      -10.6965846635  SOLV      1655            0.0000000000
      5080      1667  TIP3      OH2            -5.1182903985      -30.8824757466       -5.4917746635  SOLV      1656            0.0000000000
      5081      1667  TIP3      H1             -4.5355603985      -31.6172457466       -5.3000546635  SOLV      1656            0.0000000000
      5082      1667  TIP3      H2             -4.5543603985      -30.1104457466       -5.4451946635  SOLV      1656            0.0000000000
      5083      1668  TIP3      OH2            -3.6215803985      -32.9798957466       -4.8072346635  SOLV      1657            0.0000000000
      5084      1668  TIP3      H1             -4.4849103985      -33.3586857466       -4.9727646635  SOLV      1657            0.0000000000
      5085      1668  TIP3      H2             -3.0172103985      -33.7184157466       -4.8816546635  SOLV      1657            0.0000000000
      5086      1669  TIP3      OH2            -6.2641003985      -35.2702257466      -16.6680946635  SOLV      1658            0.0000000000
      5087      1669  TIP3      H1             -5.9843903985      -36.1771857466      -16.5439246635  SOLV      1658            0.0000000000
      5088      1669  TIP3      H2             -5.5049303985      -34.8360757466      -17.0571746635  SOLV      1658            0.0000000000
      5089      1670  TIP3      OH2            -5.6522703985      -34.6884857466      -11.2322046635  SOLV      1659            0.0000000000
      5090      1670  TIP3      H1             -4.7194703985      -34.4764957466      -11.2666046635  SOLV      1659            0.0000000000
      5091      1670  TIP3      H2             -5.8875203985      -34.5872757466      -10.3099046635  SOLV      1659            0.0000000000
      5092      1671  TIP3      OH2            -5.6230803985      -33.9519557466       -8.4562646635  SOLV      1660            0.0000000000
      5093      1671  TIP3      H1             -6.4659503985      -33.6839157466       -8.0902846635  SOLV      1660            0.0000000000
      5094      1671  TIP3      H2             -5.1806503985      -33.1297657466       -8.6671546635  SOLV      1660            0.0000000000
      5095      1672  TIP3      OH2           -21.3418603985      -35.5040857466       -4.9793446635  SOLV      1661            0.0000000000
      5096      1672  TIP3      H1            -20.4223703985      -35.6262557466       -4.7430346635  SOLV      1661            0.0000000000
      5097      1672  TIP3      H2            -21.7914103985      -36.2541157466       -4.5899946635  SOLV      1661            0.0000000000
      5098      1673  TIP3      OH2           -21.8165803985      -34.1926257466      -11.0190346635  SOLV      1662            0.0000000000
      5099      1673  TIP3      H1            -21.3246003985      -34.4135757466      -11.8098346635  SOLV      1662            0.0000000000
      5100      1673  TIP3      H2            -21.4544903985      -33.3522857466      -10.7380846635  SOLV      1662            0.0000000000
      5101      1674  TIP3      OH2            -6.7322103985      -22.9505457466      -15.0190546635  SOLV      1663            0.0000000000
      5102      1674  TIP3      H1             -6.0799203985      -23.2983357466      -15.6271446635  SOLV      1663            0.0000000000
      5103      1674  TIP3      H2             -6.2218303985      -22.4622257466      -14.3730846635  SOLV      1663            0.0000000000
      5104      1675  TIP3      OH2           -19.3474603985      -26.0214057466       -4.4759646635  SOLV      1664            0.0000000000
      5105      1675  TIP3      H1            -20.1682103985      -25.8467557466       -4.9364946635  SOLV      1664            0.0000000000
      5106      1675  TIP3      H2            -19.5996803985      -26.0949357466       -3.5555246635  SOLV      1664            0.0000000000
      5107      1676  TIP3      OH2           -16.3931703985      -25.0472857466       -8.2175646635  SOLV      1665            0.0000000000
      5108      1676  TIP3      H1            -16.8180603985      -24.2374357466       -8.5001046635  SOLV      1665            0.0000000000
      5109      1676  TIP3      H2            -15.4888903985      -24.9618757466       -8.5195846635  SOLV      1665            0.0000000000
      5110      1677  TIP3      OH2           -12.0820303985      -23.6482857466       -5.2581946635  SOLV      1666            0.0000000000
      5111      1677  TIP3      H1            -11.8972803985      -23.9816757466       -4.3801646635  SOLV      1666            0.0000000000
      5112      1677  TIP3      H2            -11.2355803985      -23.3384257466       -5.5802746635  SOLV      1666            0.0000000000
      5113      1678  TIP3      OH2            -9.7369903985      -22.3623957466       -6.0140546635  SOLV      1667            0.0000000000
      5114      1678  TIP3      H1             -9.0601003985      -22.9951657466       -6.2541346635  SOLV      1667            0.0000000000
      5115      1678  TIP3      H2             -9.4151103985      -21.9613457466       -5.2067246635  SOLV      1667            0.0000000000
      5116      1679  TIP3      OH2           -18.9915003985      -21.7908957466       -8.1700346635  SOLV      1668            0.0000000000
      5117      1679  TIP3      H1            -19.7118603985      -21.3507957466       -8.6212646635  SOLV      1668            0.0000000000
      5118      1679  TIP3      H2            -19.3571003985      -22.0414257466       -7.3216346635  SOLV      1668            0.0000000000
      5119      1680  TIP3      OH2           -16.5242403985      -22.1905057466       -9.1403146635  SOLV      1669            0.0000000000
      5120      1680  TIP3      H1            -17.3890203985      -22.1186557466       -8.7363046635  SOLV      1669            0.0000000000
      5121      1680  TIP3      H2            -16.5793403985      -21.6437757466       -9.9240646635  SOLV      1669            0.0000000000
      5122      1681  TIP3      OH2           -11.8136803985      -22.3026157466       -9.9647146635  SOLV      1670            0.0000000000
      5123      1681  TIP3      H1            -12.2702803985      -21.7736457466      -10.6188746635  SOLV      1670            0.0000000000
      5124      1681  TIP3      H2            -11.6508803985      -21.6994757466       -9.2394846635  SOLV      1670            0.0000000000
      5125      1682  TIP3      OH2            -9.4860503985      -23.4246557466       -9.0196846635  SOLV      1671            0.0000000000
      5126      1682  TIP3      H1            -10.3906803985      -23.2596357466       -9.2854746635  SOLV      1671            0.0000000000
      5127      1682  TIP3      H2             -9.0571903985      -22.5714357466       -9.0853446635  SOLV      1671            0.0000000000
      5128      1683  TIP3      OH2            -6.8818603985      -21.8547457466       -8.7249046635  SOLV      1672            0.0000000000
      5129      1683  TIP3      H1             -7.0636603985      -20.9388557466       -8.9354146635  SOLV      1672            0.0000000000
      5130      1683  TIP3      H2             -6.7050803985      -22.2650357466       -9.5714446635  SOLV      1672            0.0000000000
      5131      1684  TIP3      OH2           -19.5766903985      -23.1676457466      -11.2598546635  SOLV      1673            0.0000000000
      5132      1684  TIP3      H1            -19.5950903985      -23.5931357466      -10.4026246635  SOLV      1673            0.0000000000
      5133      1684  TIP3      H2            -18.7719003985      -23.4861457466      -11.6686346635  SOLV      1673            0.0000000000
      5134      1685  TIP3      OH2           -17.4353803985      -24.4577757466      -12.6048646635  SOLV      1674            0.0000000000
      5135      1685  TIP3      H1            -17.6543103985      -25.3740357466      -12.4352646635  SOLV      1674            0.0000000000
      5136      1685  TIP3      H2            -16.6111603985      -24.3177357466      -12.1387246635  SOLV      1674            0.0000000000
      5137      1686  TIP3      OH2           -14.8981303985      -23.9878457466      -11.7560646635  SOLV      1675            0.0000000000
      5138      1686  TIP3      H1            -14.6855603985      -24.8759457466      -12.0429746635  SOLV      1675            0.0000000000
      5139      1686  TIP3      H2            -14.8336203985      -24.0220757466      -10.8016646635  SOLV      1675            0.0000000000
      5140      1687  TIP3      OH2           -20.3257203985      -23.9437257466      -18.0886246635  SOLV      1676            0.0000000000
      5141      1687  TIP3      H1            -21.0107303985      -23.9818357466      -18.7561146635  SOLV      1676            0.0000000000
      5142      1687  TIP3      H2            -20.3220003985      -23.0309657466      -17.8004146635  SOLV      1676            0.0000000000
      5143      1688  TIP3      OH2           -11.4613703985      -22.7342357466      -19.6910046635  SOLV      1677            0.0000000000
      5144      1688  TIP3      H1            -10.5953503985      -22.3674957466      -19.8691846635  SOLV      1677            0.0000000000
      5145      1688  TIP3      H2            -11.7080903985      -23.1734357466      -20.5049246635  SOLV      1677            0.0000000000
      5146      1689  TIP3      OH2            -4.7524103985      -23.1712057466      -17.0118946635  SOLV      1678            0.0000000000
      5147      1689  TIP3      H1             -4.9467003985      -23.9189957466      -17.5769346635  SOLV      1678            0.0000000000
      5148      1689  TIP3      H2             -4.7914003985      -22.4131957466      -17.5951046635  SOLV      1678            0.0000000000
      5149      1690  TIP3      OH2            -5.5347903985      -24.4199657466       -4.8617146635  SOLV      1679            0.0000000000
      5150      1690  TIP3      H1             -6.3166003985      -24.6061657466       -5.3816546635  SOLV      1679            0.0000000000
      5151      1690  TIP3      H2             -5.6068003985      -23.4905357466       -4.6444646635  SOLV      1679            0.0000000000
      5152      1691  TIP3      OH2             8.8712496015      -30.5335257466      -14.8309946635  SOLV      1680            0.0000000000
      5153      1691  TIP3      H1              8.9603596015      -29.5897057466      -14.9632846635  SOLV      1680            0.0000000000
      5154      1691  TIP3      H2              8.2330096015      -30.8088857466      -15.4890546635  SOLV      1680            0.0000000000
      5155      1692  TIP3      OH2             7.8043796015      -31.2784557466      -11.4121746635  SOLV      1681            0.0000000000
      5156      1692  TIP3      H1              7.7661296015      -31.9248257466      -10.7072146635  SOLV      1681            0.0000000000
      5157      1692  TIP3      H2              7.4820296015      -31.7450157466      -12.1833046635  SOLV      1681            0.0000000000
      5158      1693  TIP3      OH2             0.1728796015      -31.6642457466       -9.8191846635  SOLV      1682            0.0000000000
      5159      1693  TIP3      H1              0.2140896015      -32.2899157466       -9.0959446635  SOLV      1682            0.0000000000
      5160      1693  TIP3      H2              0.8756496015      -31.0403857466       -9.6371446635  SOLV      1682            0.0000000000
      5161      1694  TIP3      OH2            11.5103996015      -28.3394157466      -13.1106646635  SOLV      1683            0.0000000000
      5162      1694  TIP3      H1             11.0696696015      -29.0598157466      -12.6601046635  SOLV      1683            0.0000000000
      5163      1694  TIP3      H2             11.4973696015      -27.6186957466      -12.4808946635  SOLV      1683            0.0000000000
      5164      1695  TIP3      OH2             1.0961896015      -27.2143557466      -11.2842746635  SOLV      1684            0.0000000000
      5165      1695  TIP3      H1              0.7267096015      -28.0163057466      -11.6538446635  SOLV      1684            0.0000000000
      5166      1695  TIP3      H2              2.0372996015      -27.3828657466      -11.2379346635  SOLV      1684            0.0000000000
      5167      1696  TIP3      OH2            -2.2937603985      -33.5540957466      -15.8913946635  SOLV      1685            0.0000000000
      5168      1696  TIP3      H1             -2.7414203985      -32.7082257466      -15.9097446635  SOLV      1685            0.0000000000
      5169      1696  TIP3      H2             -2.8546403985      -34.1336757466      -16.4068846635  SOLV      1685            0.0000000000
      5170      1697  TIP3      OH2            -1.5831503985      -31.3921357466      -13.7655946635  SOLV      1686            0.0000000000
      5171      1697  TIP3      H1             -1.3698003985      -32.1619757466      -13.2382946635  SOLV      1686            0.0000000000
      5172      1697  TIP3      H2             -0.8453903985      -31.3024657466      -14.3688346635  SOLV      1686            0.0000000000
      5173      1698  TIP3      OH2             8.6219496015      -23.2352457466      -12.8986246635  SOLV      1687            0.0000000000
      5174      1698  TIP3      H1              9.2415896015      -23.9117757466      -13.1717046635  SOLV      1687            0.0000000000
      5175      1698  TIP3      H2              8.4136896015      -23.4531657466      -11.9901346635  SOLV      1687            0.0000000000
      5176      1699  TIP3      OH2             6.1938196015      -28.8463157466      -11.0060746635  SOLV      1688            0.0000000000
      5177      1699  TIP3      H1              6.4976096015      -29.5321757466      -11.6006646635  SOLV      1688            0.0000000000
      5178      1699  TIP3      H2              6.9152196015      -28.7274457466      -10.3882746635  SOLV      1688            0.0000000000
      5179      1700  TIP3      OH2            14.8567996015      -37.2447857466      -10.1454546635  SOLV      1689            0.0000000000
      5180      1700  TIP3      H1             14.9060196015      -36.6346657466       -9.4095446635  SOLV      1689            0.0000000000
      5181      1700  TIP3      H2             15.2823096015      -36.7836957466      -10.8683446635  SOLV      1689            0.0000000000
      5182      1701  TIP3      OH2             9.3345196015      -34.4520757466      -10.6785946635  SOLV      1690            0.0000000000
      5183      1701  TIP3      H1              9.4771096015      -35.3983757466      -10.6584346635  SOLV      1690            0.0000000000
      5184      1701  TIP3      H2              9.2284196015      -34.2450957466      -11.6071046635  SOLV      1690            0.0000000000
      5185      1702  TIP3      OH2             2.4893496015      -36.3504357466      -13.4061146635  SOLV      1691            0.0000000000
      5186      1702  TIP3      H1              2.5324596015      -35.4905857466      -13.8244846635  SOLV      1691            0.0000000000
      5187      1702  TIP3      H2              2.0317596015      -36.9029657466      -14.0397946635  SOLV      1691            0.0000000000
      5188      1703  TIP3      OH2            10.2116196015      -36.2198757466      -15.0052846635  SOLV      1692            0.0000000000
      5189      1703  TIP3      H1             10.8580496015      -36.5485557466      -14.3805246635  SOLV      1692            0.0000000000
      5190      1703  TIP3      H2             10.7215596015      -35.7019757466      -15.6281446635  SOLV      1692            0.0000000000
      5191      1704  TIP3      OH2            -0.8905003985      -33.9538557466      -12.6439746635  SOLV      1693            0.0000000000
      5192      1704  TIP3      H1             -0.2368403985      -34.5036857466      -12.2119646635  SOLV      1693            0.0000000000
      5193      1704  TIP3      H2             -0.8665703985      -34.2279557466      -13.5607746635  SOLV      1693            0.0000000000
      5194      1705  TIP3      OH2             4.2659496015      -32.4037257466      -13.4288246635  SOLV      1694            0.0000000000
      5195      1705  TIP3      H1              4.8820496015      -32.9301857466      -12.9194246635  SOLV      1694            0.0000000000
      5196      1705  TIP3      H2              3.6798296015      -33.0438557466      -13.8324646635  SOLV      1694            0.0000000000
      5197      1706  TIP3      OH2            15.2482596015      -35.7668657466       -7.9094746635  SOLV      1695            0.0000000000
      5198      1706  TIP3      H1             14.5597196015      -35.1087957466       -8.0048146635  SOLV      1695            0.0000000000
      5199      1706  TIP3      H2             15.2637196015      -35.9640757466       -6.9729346635  SOLV      1695            0.0000000000
      5200      1707  TIP3      OH2             8.6685196015      -27.9324857466      -15.7881246635  SOLV      1696            0.0000000000
      5201      1707  TIP3      H1              8.3730296015      -28.2552557466      -16.6394346635  SOLV      1696            0.0000000000
      5202      1707  TIP3      H2              8.3442996015      -27.0328157466      -15.7468646635  SOLV      1696            0.0000000000
      5203      1708  TIP3      OH2             3.8686796015      -29.7570257466       -9.0446646635  SOLV      1697            0.0000000000
      5204      1708  TIP3      H1              3.1285896015      -29.1588757466       -8.9411446635  SOLV      1697            0.0000000000
      5205      1708  TIP3      H2              4.5826296015      -29.2030657466       -9.3603046635  SOLV      1697            0.0000000000
      5206      1709  TIP3      OH2             0.8932696015      -35.5404157466      -11.3798146635  SOLV      1698            0.0000000000
      5207      1709  TIP3      H1              1.5068996015      -34.9076557466      -11.0065746635  SOLV      1698            0.0000000000
      5208      1709  TIP3      H2              1.4053396015      -36.0129157466      -12.0361246635  SOLV      1698            0.0000000000
      5209      1710  TIP3      OH2             2.2761096015      -27.7927257466       -8.2575146635  SOLV      1699            0.0000000000
      5210      1710  TIP3      H1              2.2708696015      -26.9133757466       -8.6355846635  SOLV      1699            0.0000000000
      5211      1710  TIP3      H2              1.4225196015      -27.8763157466       -7.8325246635  SOLV      1699            0.0000000000
      5212      1711  TIP3      OH2            -1.6028003985      -28.1219357466      -17.4755846635  SOLV      1700            0.0000000000
      5213      1711  TIP3      H1             -1.8747103985      -27.8928357466      -18.3642946635  SOLV      1700            0.0000000000
      5214      1711  TIP3      H2             -1.5572303985      -27.2840557466      -17.0150546635  SOLV      1700            0.0000000000
      5215      1712  TIP3      OH2            12.0221696015      -26.5003457466      -10.7627346635  SOLV      1701            0.0000000000
      5216      1712  TIP3      H1             11.0805396015      -26.4419557466      -10.6010446635  SOLV      1701            0.0000000000
      5217      1712  TIP3      H2             12.2987796015      -25.5942957466      -10.8997646635  SOLV      1701            0.0000000000
      5218      1713  TIP3      OH2            10.2742896015      -24.7189957466      -14.1375746635  SOLV      1702            0.0000000000
      5219      1713  TIP3      H1             10.6995196015      -25.4262057466      -14.6226146635  SOLV      1702            0.0000000000
      5220      1713  TIP3      H2             10.5912896015      -23.9177257466      -14.5543546635  SOLV      1702            0.0000000000
      5221      1714  TIP3      OH2            11.4339396015      -26.8181457466      -15.6289146635  SOLV      1703            0.0000000000
      5222      1714  TIP3      H1             11.1764196015      -27.5081357466      -16.2403246635  SOLV      1703            0.0000000000
      5223      1714  TIP3      H2             11.5050196015      -27.2610257466      -14.7833246635  SOLV      1703            0.0000000000
      5224      1715  TIP3      OH2            13.1199596015      -28.2514757466       -7.1515646635  SOLV      1704            0.0000000000
      5225      1715  TIP3      H1             13.2595896015      -28.8432257466       -7.8908646635  SOLV      1704            0.0000000000
      5226      1715  TIP3      H2             13.2872396015      -27.3788857466       -7.5076846635  SOLV      1704            0.0000000000
      5227      1716  TIP3      OH2             7.5924996015      -31.2895257466      -17.3789646635  SOLV      1705            0.0000000000
      5228      1716  TIP3      H1              6.8810496015      -30.7545557466      -17.7309146635  SOLV      1705            0.0000000000
      5229      1716  TIP3      H2              8.2834596015      -31.2343157466      -18.0390746635  SOLV      1705            0.0000000000
      5230      1717  TIP3      OH2             7.6464196015      -32.8320957466      -20.3404646635  SOLV      1706            0.0000000000
      5231      1717  TIP3      H1              8.3474096015      -32.8094057466      -19.6890646635  SOLV      1706            0.0000000000
      5232      1717  TIP3      H2              7.9487096015      -33.4601257466      -20.9965346635  SOLV      1706            0.0000000000
      5233      1718  TIP3      OH2            14.9618896015      -31.9116757466       -9.0855246635  SOLV      1707            0.0000000000
      5234      1718  TIP3      H1             14.3092996015      -31.2171157466       -8.9964346635  SOLV      1707            0.0000000000
      5235      1718  TIP3      H2             15.4269196015      -31.7015857466       -9.8953646635  SOLV      1707            0.0000000000
      5236      1719  TIP3      OH2            10.9982696015      -31.0801957466      -16.4273746635  SOLV      1708            0.0000000000
      5237      1719  TIP3      H1             10.2663696015      -30.8518257466      -15.8543146635  SOLV      1708            0.0000000000
      5238      1719  TIP3      H2             11.4454896015      -31.7939257466      -15.9726246635  SOLV      1708            0.0000000000
      5239      1720  TIP3      OH2            10.8956196015      -32.9059357466       -7.3596746635  SOLV      1709            0.0000000000
      5240      1720  TIP3      H1             10.9755296015      -32.1424957466       -6.7878246635  SOLV      1709            0.0000000000
      5241      1720  TIP3      H2             10.2943896015      -32.6266957466       -8.0501646635  SOLV      1709            0.0000000000
      5242      1721  TIP3      OH2             2.6436396015      -30.4495757466      -14.5448746635  SOLV      1710            0.0000000000
      5243      1721  TIP3      H1              2.3131596015      -30.8202357466      -15.3631746635  SOLV      1710            0.0000000000
      5244      1721  TIP3      H2              3.2320496015      -31.1201757466      -14.1980446635  SOLV      1710            0.0000000000
      5245      1722  TIP3      OH2             4.0103896015      -27.0215157466      -11.8636546635  SOLV      1711            0.0000000000
      5246      1722  TIP3      H1              3.9155196015      -27.6002057466      -12.6201946635  SOLV      1711            0.0000000000
      5247      1722  TIP3      H2              4.7397496015      -27.3929457466      -11.3673746635  SOLV      1711            0.0000000000
      5248      1723  TIP3      OH2             3.0101896015      -31.6810157466      -10.9113746635  SOLV      1712            0.0000000000
      5249      1723  TIP3      H1              3.5754396015      -31.5595957466      -11.6742546635  SOLV      1712            0.0000000000
      5250      1723  TIP3      H2              3.3290796015      -31.0435157466      -10.2725246635  SOLV      1712            0.0000000000
      5251      1724  TIP3      OH2             9.3194096015      -26.1778257466      -10.1773246635  SOLV      1713            0.0000000000
      5252      1724  TIP3      H1              9.0790696015      -25.5155157466       -9.5294046635  SOLV      1713            0.0000000000
      5253      1724  TIP3      H2              9.1212296015      -27.0123057466       -9.7523646635  SOLV      1713            0.0000000000
      5254      1725  TIP3      OH2             3.8902596015      -27.2817457466       -6.1941846635  SOLV      1714            0.0000000000
      5255      1725  TIP3      H1              3.5790096015      -26.4994257466       -5.7388646635  SOLV      1714            0.0000000000
      5256      1725  TIP3      H2              3.2402796015      -27.4348357466       -6.8799846635  SOLV      1714            0.0000000000
      5257      1726  TIP3      OH2             9.8692196015      -31.9179057466      -18.7422546635  SOLV      1715            0.0000000000
      5258      1726  TIP3      H1             10.4487696015      -31.7678757466      -17.9953646635  SOLV      1715            0.0000000000
      5259      1726  TIP3      H2             10.2832196015      -31.4471657466      -19.4656146635  SOLV      1715            0.0000000000
      5260      1727  TIP3      OH2             0.8102496015      -31.0836357466       -6.9656146635  SOLV      1716            0.0000000000
      5261      1727  TIP3      H1              0.8805696015      -30.4329557466       -6.2671146635  SOLV      1716            0.0000000000
      5262      1727  TIP3      H2             -0.0805303985      -30.9808857466       -7.3005246635  SOLV      1716            0.0000000000
      5263      1728  TIP3      OH2             7.5957096015      -25.1810557466      -15.3069446635  SOLV      1717            0.0000000000
      5264      1728  TIP3      H1              8.0694696015      -24.8854257466      -14.5295246635  SOLV      1717            0.0000000000
      5265      1728  TIP3      H2              7.0326396015      -24.4428957466      -15.5399846635  SOLV      1717            0.0000000000
      5266      1729  TIP3      OH2             2.1298496015      -25.2102457466       -5.4308046635  SOLV      1718            0.0000000000
      5267      1729  TIP3      H1              2.1373796015      -25.3462757466       -6.3782546635  SOLV      1718            0.0000000000
      5268      1729  TIP3      H2              1.2138896015      -25.3274357466       -5.1788046635  SOLV      1718            0.0000000000
      5269      1730  TIP3      OH2             1.6339096015      -31.3801457466      -16.9555946635  SOLV      1719            0.0000000000
      5270      1730  TIP3      H1              1.3420396015      -30.6119757466      -17.4464646635  SOLV      1719            0.0000000000
      5271      1730  TIP3      H2              0.9594296015      -32.0395257466      -17.1184546635  SOLV      1719            0.0000000000
      5272      1731  TIP3      OH2            14.7571996015      -25.8016257466      -20.5528946635  SOLV      1720            0.0000000000
      5273      1731  TIP3      H1             14.8305496015      -24.8626057466      -20.3823646635  SOLV      1720            0.0000000000
      5274      1731  TIP3      H2             15.6627096015      -26.1067657466      -20.6091646635  SOLV      1720            0.0000000000
      5275      1732  TIP3      OH2            -2.2730803985      -29.0172257466       -8.1406146635  SOLV      1721            0.0000000000
      5276      1732  TIP3      H1             -2.7742403985      -29.0452857466       -8.9556446635  SOLV      1721            0.0000000000
      5277      1732  TIP3      H2             -2.2677103985      -29.9229057466       -7.8308846635  SOLV      1721            0.0000000000
      5278      1733  TIP3      OH2            -2.5228103985      -26.2368457466      -11.2565946635  SOLV      1722            0.0000000000
      5279      1733  TIP3      H1             -1.5767503985      -26.3811457466      -11.2756446635  SOLV      1722            0.0000000000
      5280      1733  TIP3      H2             -2.6351803985      -25.4525657466      -10.7194746635  SOLV      1722            0.0000000000
      5281      1734  TIP3      OH2            15.6750396015      -25.5708757466       -5.5742246635  SOLV      1723            0.0000000000
      5282      1734  TIP3      H1             15.6257196015      -26.5260657466       -5.6114646635  SOLV      1723            0.0000000000
      5283      1734  TIP3      H2             14.8482696015      -25.3033457466       -5.1728446635  SOLV      1723            0.0000000000
      5284      1735  TIP3      OH2             6.6534396015      -25.9969557466       -6.6980846635  SOLV      1724            0.0000000000
      5285      1735  TIP3      H1              6.7408996015      -25.1704957466       -6.2231746635  SOLV      1724            0.0000000000
      5286      1735  TIP3      H2              5.7899496015      -26.3265757466       -6.4491546635  SOLV      1724            0.0000000000
      5287      1736  TIP3      OH2             7.0680196015      -22.2245857466      -16.8920246635  SOLV      1725            0.0000000000
      5288      1736  TIP3      H1              6.9926196015      -22.3458657466      -17.8385046635  SOLV      1725            0.0000000000
      5289      1736  TIP3      H2              7.1008896015      -21.2753157466      -16.7735646635  SOLV      1725            0.0000000000
      5290      1737  TIP3      OH2             0.7213996015      -23.4358857466      -15.1111246635  SOLV      1726            0.0000000000
      5291      1737  TIP3      H1              0.8734396015      -23.7838457466      -14.2324746635  SOLV      1726            0.0000000000
      5292      1737  TIP3      H2             -0.1295603985      -23.7921557466      -15.3664046635  SOLV      1726            0.0000000000
      5293      1738  TIP3      OH2            10.1696196015      -23.0705657466      -19.8897846635  SOLV      1727            0.0000000000
      5294      1738  TIP3      H1             10.5444596015      -23.8149557466      -20.3605246635  SOLV      1727            0.0000000000
      5295      1738  TIP3      H2             10.1739896015      -23.3405057466      -18.9714546635  SOLV      1727            0.0000000000
      5296      1739  TIP3      OH2             9.8384296015      -23.1448557466      -17.1405646635  SOLV      1728            0.0000000000
      5297      1739  TIP3      H1              8.9034096015      -23.0446657466      -16.9618646635  SOLV      1728            0.0000000000
      5298      1739  TIP3      H2             10.1186196015      -23.8542557466      -16.5622446635  SOLV      1728            0.0000000000
      5299      1740  TIP3      OH2            12.8270196015      -34.0776257466       -5.0940046635  SOLV      1729            0.0000000000
      5300      1740  TIP3      H1             12.4196996015      -33.5970657466       -5.8146746635  SOLV      1729            0.0000000000
      5301      1740  TIP3      H2             12.8675896015      -34.9830257466       -5.4019246635  SOLV      1729            0.0000000000
      5302      1741  TIP3      OH2            -0.0240303985      -27.6936857466       -7.0973346635  SOLV      1730            0.0000000000
      5303      1741  TIP3      H1              0.1920996015      -28.0551257466       -6.2377546635  SOLV      1730            0.0000000000
      5304      1741  TIP3      H2             -0.8795603985      -28.0683057466       -7.3069846635  SOLV      1730            0.0000000000
      5305      1742  TIP3      OH2            10.5840396015      -35.7460757466       -6.8737646635  SOLV      1731            0.0000000000
      5306      1742  TIP3      H1             10.0699896015      -35.8718557466       -6.0761646635  SOLV      1731            0.0000000000
      5307      1742  TIP3      H2             10.4285096015      -34.8337657466       -7.1181446635  SOLV      1731            0.0000000000
      5308      1743  TIP3      OH2            11.3465296015      -30.8850757466      -21.1124646635  SOLV      1732            0.0000000000
      5309      1743  TIP3      H1             11.3886096015      -31.1076857466      -22.0424646635  SOLV      1732            0.0000000000
      5310      1743  TIP3      H2             12.1957396015      -30.4863657466      -20.9224746635  SOLV      1732            0.0000000000
      5311      1744  TIP3      OH2             2.6857796015      -34.2581857466      -10.0068946635  SOLV      1733            0.0000000000
      5312      1744  TIP3      H1              2.0439896015      -34.2984557466       -9.2978846635  SOLV      1733            0.0000000000
      5313      1744  TIP3      H2              2.7229796015      -33.3317157466      -10.2445946635  SOLV      1733            0.0000000000
      5314      1745  TIP3      OH2             2.6826896015      -34.0371757466      -15.0948946635  SOLV      1734            0.0000000000
      5315      1745  TIP3      H1              1.7899796015      -34.3775657466      -15.1535146635  SOLV      1734            0.0000000000
      5316      1745  TIP3      H2              3.1333496015      -34.4140857466      -15.8505746635  SOLV      1734            0.0000000000
      5317      1746  TIP3      OH2             8.2182396015      -33.6211457466      -16.2778146635  SOLV      1735            0.0000000000
      5318      1746  TIP3      H1              7.8092696015      -32.8062857466      -16.5693346635  SOLV      1735            0.0000000000
      5319      1746  TIP3      H2              8.9388596015      -33.7611357466      -16.8921046635  SOLV      1735            0.0000000000
      5320      1747  TIP3      OH2             7.3203996015      -33.4455057466       -4.7897446635  SOLV      1736            0.0000000000
      5321      1747  TIP3      H1              6.7577796015      -34.1503457466       -4.4689646635  SOLV      1736            0.0000000000
      5322      1747  TIP3      H2              8.1467396015      -33.5663157466       -4.3219846635  SOLV      1736            0.0000000000
      5323      1748  TIP3      OH2             9.2230096015      -34.1751057466      -13.4638446635  SOLV      1737            0.0000000000
      5324      1748  TIP3      H1              9.0274596015      -33.5694257466      -14.1787846635  SOLV      1737            0.0000000000
      5325      1748  TIP3      H2              9.4042696015      -35.0085857466      -13.8982146635  SOLV      1737            0.0000000000
      5326      1749  TIP3      OH2             0.4358296015      -33.9378357466       -8.1396946635  SOLV      1738            0.0000000000
      5327      1749  TIP3      H1              0.3977696015      -33.5376757466       -7.2709846635  SOLV      1738            0.0000000000
      5328      1749  TIP3      H2             -0.0550603985      -34.7545957466       -8.0494046635  SOLV      1738            0.0000000000
      5329      1750  TIP3      OH2             3.8015696015      -36.5636057466      -21.3410946635  SOLV      1739            0.0000000000
      5330      1750  TIP3      H1              3.3706396015      -37.0085957466      -20.6113546635  SOLV      1739            0.0000000000
      5331      1750  TIP3      H2              3.0834396015      -36.1919757466      -21.8533446635  SOLV      1739            0.0000000000
      5332      1751  TIP3      OH2            -1.6818803985      -36.0754557466      -18.8651846635  SOLV      1740            0.0000000000
      5333      1751  TIP3      H1             -1.2077103985      -35.4844657466      -19.4500946635  SOLV      1740            0.0000000000
      5334      1751  TIP3      H2             -2.3992403985      -35.5451657466      -18.5181746635  SOLV      1740            0.0000000000
      5335      1752  TIP3      OH2             8.4869296015      -32.5369757466       -8.7926046635  SOLV      1741            0.0000000000
      5336      1752  TIP3      H1              8.8104096015      -33.1680057466       -9.4355546635  SOLV      1741            0.0000000000
      5337      1752  TIP3      H2              8.0468596015      -33.0717557466       -8.1318646635  SOLV      1741            0.0000000000
      5338      1753  TIP3      OH2             5.2642196015      -36.6094257466      -14.0084846635  SOLV      1742            0.0000000000
      5339      1753  TIP3      H1              4.3533296015      -36.5527457466      -13.7198846635  SOLV      1742            0.0000000000
      5340      1753  TIP3      H2              5.7695096015      -36.6698757466      -13.1977646635  SOLV      1742            0.0000000000
      5341      1754  TIP3      OH2             0.0925596015      -34.9807957466      -15.1817246635  SOLV      1743            0.0000000000
      5342      1754  TIP3      H1             -0.7966403985      -34.8812457466      -15.5217646635  SOLV      1743            0.0000000000
      5343      1754  TIP3      H2              0.3890496015      -35.8224957466      -15.5279346635  SOLV      1743            0.0000000000
      5344      1755  TIP3      OH2             3.7457396015      -34.9805357466      -17.5252646635  SOLV      1744            0.0000000000
      5345      1755  TIP3      H1              4.6772896015      -34.8515357466      -17.3469546635  SOLV      1744            0.0000000000
      5346      1755  TIP3      H2              3.5307696015      -34.3111057466      -18.1747946635  SOLV      1744            0.0000000000
      5347      1756  TIP3      OH2             2.4197596015      -33.7863157466      -19.9586546635  SOLV      1745            0.0000000000
      5348      1756  TIP3      H1              1.8772696015      -34.1659357466      -20.6498946635  SOLV      1745            0.0000000000
      5349      1756  TIP3      H2              3.2532496015      -33.5918457466      -20.3872446635  SOLV      1745            0.0000000000
      5350      1757  TIP3      OH2            12.9569196015      -21.7032557466       -4.4675446635  SOLV      1746            0.0000000000
      5351      1757  TIP3      H1             13.1567896015      -21.2790657466       -5.3020146635  SOLV      1746            0.0000000000
      5352      1757  TIP3      H2             13.6122896015      -21.3594357466       -3.8605046635  SOLV      1746            0.0000000000
      5353      1758  TIP3      OH2             0.5548996015      -29.2291257466       -4.8594946635  SOLV      1747            0.0000000000
      5354      1758  TIP3      H1              1.2871396015      -28.9745357466       -4.2980446635  SOLV      1747            0.0000000000
      5355      1758  TIP3      H2             -0.2252303985      -29.0245857466       -4.3439546635  SOLV      1747            0.0000000000
      5356      1759  TIP3      OH2             6.5841896015      -33.8221257466      -12.1215246635  SOLV      1748            0.0000000000
      5357      1759  TIP3      H1              7.1485296015      -34.3684657466      -12.6685646635  SOLV      1748            0.0000000000
      5358      1759  TIP3      H2              6.4365296015      -34.3439357466      -11.3327646635  SOLV      1748            0.0000000000
      5359      1760  TIP3      OH2             5.2107796015      -35.4335157466       -9.7074846635  SOLV      1749            0.0000000000
      5360      1760  TIP3      H1              4.3753096015      -34.9795657466       -9.5972446635  SOLV      1749            0.0000000000
      5361      1760  TIP3      H2              5.7348396015      -35.1576657466       -8.9554946635  SOLV      1749            0.0000000000
      5362      1761  TIP3      OH2             5.7550396015      -29.2207457466      -18.0228446635  SOLV      1750            0.0000000000
      5363      1761  TIP3      H1              5.0101396015      -29.7282157466      -18.3450546635  SOLV      1750            0.0000000000
      5364      1761  TIP3      H2              5.6207596015      -29.1719457466      -17.0763646635  SOLV      1750            0.0000000000
      5365      1762  TIP3      OH2            12.9049296015      -30.0879257466       -9.2360846635  SOLV      1751            0.0000000000
      5366      1762  TIP3      H1             13.5468096015      -29.6312957466       -9.7798646635  SOLV      1751            0.0000000000
      5367      1762  TIP3      H2             12.0746196015      -29.9746857466       -9.6986746635  SOLV      1751            0.0000000000
      5368      1763  TIP3      OH2             9.6527196015      -36.4067557466      -19.8235846635  SOLV      1752            0.0000000000
      5369      1763  TIP3      H1              8.7141396015      -36.2951957466      -19.9747046635  SOLV      1752            0.0000000000
      5370      1763  TIP3      H2              9.9499296015      -35.5500657466      -19.5170146635  SOLV      1752            0.0000000000
      5371      1764  TIP3      OH2             7.2742496015      -29.0364157466       -6.7859346635  SOLV      1753            0.0000000000
      5372      1764  TIP3      H1              6.9288596015      -29.4181757466       -5.9789746635  SOLV      1753            0.0000000000
      5373      1764  TIP3      H2              7.0742596015      -28.1030557466       -6.7146446635  SOLV      1753            0.0000000000
      5374      1765  TIP3      OH2            10.3710696015      -34.5394857466      -18.1628446635  SOLV      1754            0.0000000000
      5375      1765  TIP3      H1             11.2629696015      -34.6769857466      -17.8437246635  SOLV      1754            0.0000000000
      5376      1765  TIP3      H2             10.4274296015      -33.7488757466      -18.6994946635  SOLV      1754            0.0000000000
      5377      1766  TIP3      OH2             0.8798696015      -29.9257457466      -12.2530546635  SOLV      1755            0.0000000000
      5378      1766  TIP3      H1              1.6245896015      -29.9281757466      -12.8544046635  SOLV      1755            0.0000000000
      5379      1766  TIP3      H2              0.9575296015      -30.7493657466      -11.7715446635  SOLV      1755            0.0000000000
      5380      1767  TIP3      OH2             7.8804496015      -27.7623157466      -18.9973846635  SOLV      1756            0.0000000000
      5381      1767  TIP3      H1              7.5852896015      -26.9355257466      -18.6159046635  SOLV      1756            0.0000000000
      5382      1767  TIP3      H2              7.1774496015      -28.3816257466      -18.8012446635  SOLV      1756            0.0000000000
      5383      1768  TIP3      OH2            -2.1121603985      -31.4650557466       -6.9382046635  SOLV      1757            0.0000000000
      5384      1768  TIP3      H1             -1.8893003985      -31.8830957466       -6.1064546635  SOLV      1757            0.0000000000
      5385      1768  TIP3      H2             -2.7141503985      -32.0775557466       -7.3609246635  SOLV      1757            0.0000000000
      5386      1769  TIP3      OH2             4.9043296015      -31.9480657466       -4.7252346635  SOLV      1758            0.0000000000
      5387      1769  TIP3      H1              4.6084096015      -32.1137657466       -5.6203246635  SOLV      1758            0.0000000000
      5388      1769  TIP3      H2              5.8358496015      -32.1680357466       -4.7358446635  SOLV      1758            0.0000000000
      5389      1770  TIP3      OH2             9.5246096015      -26.5748657466       -6.8354346635  SOLV      1759            0.0000000000
      5390      1770  TIP3      H1              8.6240396015      -26.3916057466       -7.1030446635  SOLV      1759            0.0000000000
      5391      1770  TIP3      H2              9.5587196015      -26.3159357466       -5.9145546635  SOLV      1759            0.0000000000
      5392      1771  TIP3      OH2            15.2559396015      -34.3300757466      -18.4681746635  SOLV      1760            0.0000000000
      5393      1771  TIP3      H1             14.7015696015      -34.7262757466      -19.1404246635  SOLV      1760            0.0000000000
      5394      1771  TIP3      H2             15.3562996015      -33.4195557466      -18.7458446635  SOLV      1760            0.0000000000
      5395      1772  TIP3      OH2            15.2191396015      -28.5299057466       -5.6310246635  SOLV      1761            0.0000000000
      5396      1772  TIP3      H1             14.3679896015      -28.2915257466       -5.9983846635  SOLV      1761            0.0000000000
      5397      1772  TIP3      H2             15.8094796015      -28.5465857466       -6.3843146635  SOLV      1761            0.0000000000
      5398      1773  TIP3      OH2            13.5511096015      -25.5440357466      -18.0029646635  SOLV      1762            0.0000000000
      5399      1773  TIP3      H1             13.1782196015      -26.3696557466      -17.6939046635  SOLV      1762            0.0000000000
      5400      1773  TIP3      H2             13.8284596015      -25.7270957466      -18.9006246635  SOLV      1762            0.0000000000
      5401      1774  TIP3      OH2            10.7114996015      -30.7360857466      -10.9817746635  SOLV      1763            0.0000000000
      5402      1774  TIP3      H1              9.7831896015      -30.9678957466      -11.0088446635  SOLV      1763            0.0000000000
      5403      1774  TIP3      H2             11.1626096015      -31.5131057466      -11.3118946635  SOLV      1763            0.0000000000
      5404      1775  TIP3      OH2             3.2548096015      -26.4079257466      -14.8489046635  SOLV      1764            0.0000000000
      5405      1775  TIP3      H1              3.7820296015      -25.6344857466      -15.0490246635  SOLV      1764            0.0000000000
      5406      1775  TIP3      H2              2.3746596015      -26.1830057466      -15.1505046635  SOLV      1764            0.0000000000
      5407      1776  TIP3      OH2            -0.9904203985      -31.5455157466      -20.2616646635  SOLV      1765            0.0000000000
      5408      1776  TIP3      H1             -0.3744303985      -30.9187957466      -19.8821846635  SOLV      1765            0.0000000000
      5409      1776  TIP3      H2             -1.8521603985      -31.2295357466      -19.9900146635  SOLV      1765            0.0000000000
      5410      1777  TIP3      OH2             4.6820396015      -28.7449357466      -15.2724746635  SOLV      1766            0.0000000000
      5411      1777  TIP3      H1              4.4410396015      -27.8194957466      -15.2309446635  SOLV      1766            0.0000000000
      5412      1777  TIP3      H2              3.9413996015      -29.2038057466      -14.8760846635  SOLV      1766            0.0000000000
      5413      1778  TIP3      OH2             5.1966996015      -24.5955757466       -8.9573646635  SOLV      1767            0.0000000000
      5414      1778  TIP3      H1              5.5591696015      -23.7410157466       -9.1909246635  SOLV      1767            0.0000000000
      5415      1778  TIP3      H2              5.7282196015      -24.8874157466       -8.2167346635  SOLV      1767            0.0000000000
      5416      1779  TIP3      OH2             3.3651196015      -23.7231757466      -15.7272546635  SOLV      1768            0.0000000000
      5417      1779  TIP3      H1              2.4151696015      -23.6174357466      -15.6759246635  SOLV      1768            0.0000000000
      5418      1779  TIP3      H2              3.7169296015      -22.9024357466      -15.3825046635  SOLV      1768            0.0000000000
      5419      1780  TIP3      OH2             8.7407796015      -28.4965057466       -9.2568046635  SOLV      1769            0.0000000000
      5420      1780  TIP3      H1              8.3149096015      -28.7243357466       -8.4304046635  SOLV      1769            0.0000000000
      5421      1780  TIP3      H2              9.3213596015      -29.2353257466       -9.4392746635  SOLV      1769            0.0000000000
      5422      1781  TIP3      OH2            10.9436696015      -27.5674557466      -20.1829046635  SOLV      1770            0.0000000000
      5423      1781  TIP3      H1             11.2969796015      -27.9474757466      -19.3785546635  SOLV      1770            0.0000000000
      5424      1781  TIP3      H2              9.9950196015      -27.6609757466      -20.0959746635  SOLV      1770            0.0000000000
      5425      1782  TIP3      OH2            11.3991996015      -23.9445557466       -6.7873246635  SOLV      1771            0.0000000000
      5426      1782  TIP3      H1             10.7975196015      -24.5002657466       -7.2826946635  SOLV      1771            0.0000000000
      5427      1782  TIP3      H2             11.6805696015      -23.2775757466       -7.4135846635  SOLV      1771            0.0000000000
      5428      1783  TIP3      OH2            15.4471096015      -23.0882057466      -19.9818846635  SOLV      1772            0.0000000000
      5429      1783  TIP3      H1             16.1908996015      -22.5021557466      -20.1217246635  SOLV      1772            0.0000000000
      5430      1783  TIP3      H2             14.7529196015      -22.5196257466      -19.6486446635  SOLV      1772            0.0000000000
      5431      1784  TIP3      OH2            -0.4782103985      -36.7117857466       -7.3800646635  SOLV      1773            0.0000000000
      5432      1784  TIP3      H1             -1.3709803985      -36.3732457466       -7.4476646635  SOLV      1773            0.0000000000
      5433      1784  TIP3      H2             -0.5769303985      -37.5671757466       -6.9619846635  SOLV      1773            0.0000000000
      5434      1785  TIP3      OH2            11.8095996015      -28.8952557466      -17.9561146635  SOLV      1774            0.0000000000
      5435      1785  TIP3      H1             11.5323596015      -29.6233257466      -17.4000046635  SOLV      1774            0.0000000000
      5436      1785  TIP3      H2             12.7368996015      -28.7760557466      -17.7508546635  SOLV      1774            0.0000000000
      5437      1786  TIP3      OH2            -0.8270103985      -24.9073457466       -8.9451246635  SOLV      1775            0.0000000000
      5438      1786  TIP3      H1             -0.6099803985      -25.8391057466       -8.9761546635  SOLV      1775            0.0000000000
      5439      1786  TIP3      H2             -0.5806603985      -24.6328457466       -8.0618446635  SOLV      1775            0.0000000000
      5440      1787  TIP3      OH2             5.0344496015      -26.4558457466      -21.7359046635  SOLV      1776            0.0000000000
      5441      1787  TIP3      H1              5.2734296015      -27.2040357466      -22.2830146635  SOLV      1776            0.0000000000
      5442      1787  TIP3      H2              4.7655796015      -26.8436757466      -20.9031246635  SOLV      1776            0.0000000000
      5443      1788  TIP3      OH2             3.9715096015      -26.8854657466      -19.2796446635  SOLV      1777            0.0000000000
      5444      1788  TIP3      H1              4.1183096015      -27.4054857466      -18.4895546635  SOLV      1777            0.0000000000
      5445      1788  TIP3      H2              3.9686796015      -25.9787057466      -18.9730546635  SOLV      1777            0.0000000000
      5446      1789  TIP3      OH2             0.4246196015      -29.6331357466      -18.7691046635  SOLV      1778            0.0000000000
      5447      1789  TIP3      H1             -0.2614503985      -29.2808857466      -18.2021346635  SOLV      1778            0.0000000000
      5448      1789  TIP3      H2              0.9474096015      -28.8701757466      -19.0156746635  SOLV      1778            0.0000000000
      5449      1790  TIP3      OH2             6.7092296015      -25.1881057466      -18.5302246635  SOLV      1779            0.0000000000
      5450      1790  TIP3      H1              5.8928396015      -24.6911357466      -18.4777946635  SOLV      1779            0.0000000000
      5451      1790  TIP3      H2              7.2388596015      -24.7127557466      -19.1703446635  SOLV      1779            0.0000000000
      5452      1791  TIP3      OH2             6.2406096015      -35.5907057466      -16.5581346635  SOLV      1780            0.0000000000
      5453      1791  TIP3      H1              7.0528696015      -35.0863857466      -16.5119646635  SOLV      1780            0.0000000000
      5454      1791  TIP3      H2              5.9959096015      -35.7357357466      -15.6441746635  SOLV      1780            0.0000000000
      5455      1792  TIP3      OH2             6.7762496015      -34.6044357466       -7.3734746635  SOLV      1781            0.0000000000
      5456      1792  TIP3      H1              6.8952796015      -34.0308957466       -6.6164346635  SOLV      1781            0.0000000000
      5457      1792  TIP3      H2              7.4317096015      -35.2924957466       -7.2586946635  SOLV      1781            0.0000000000
      5458      1793  TIP3      OH2             4.0475396015      -24.1443857466      -18.5485346635  SOLV      1782            0.0000000000
      5459      1793  TIP3      H1              4.2084096015      -23.3446357466      -19.0492746635  SOLV      1782            0.0000000000
      5460      1793  TIP3      H2              3.8503196015      -23.8377857466      -17.6634746635  SOLV      1782            0.0000000000
      5461      1794  TIP3      OH2            12.9808296015      -36.6974057466       -6.5385046635  SOLV      1783            0.0000000000
      5462      1794  TIP3      H1             12.0644096015      -36.4352357466       -6.6261346635  SOLV      1783            0.0000000000
      5463      1794  TIP3      H2             13.3163296015      -36.7005057466       -7.4349746635  SOLV      1783            0.0000000000
      5464      1795  TIP3      OH2            11.5829296015      -32.9473057466      -12.4427746635  SOLV      1784            0.0000000000
      5465      1795  TIP3      H1             10.7853696015      -33.3622857466      -12.7712746635  SOLV      1784            0.0000000000
      5466      1795  TIP3      H2             12.0280396015      -33.6379357466      -11.9517246635  SOLV      1784            0.0000000000
      5467      1796  TIP3      OH2             1.0405096015      -27.0192457466      -19.8723246635  SOLV      1785            0.0000000000
      5468      1796  TIP3      H1              1.6326596015      -26.3197657466      -19.5960846635  SOLV      1785            0.0000000000
      5469      1796  TIP3      H2              1.4998096015      -27.4522957466      -20.5918646635  SOLV      1785            0.0000000000
      5470      1797  TIP3      OH2            -0.6435703985      -34.3549457466      -20.7563846635  SOLV      1786            0.0000000000
      5471      1797  TIP3      H1             -0.6883103985      -33.4156357466      -20.5776846635  SOLV      1786            0.0000000000
      5472      1797  TIP3      H2             -1.5312503985      -34.5904557466      -21.0261746635  SOLV      1786            0.0000000000
      5473      1798  TIP3      OH2            12.6693896015      -23.6910557466      -10.8204246635  SOLV      1787            0.0000000000
      5474      1798  TIP3      H1             12.5138196015      -23.0126157466      -11.4774946635  SOLV      1787            0.0000000000
      5475      1798  TIP3      H2             13.6020296015      -23.6191257466      -10.6173646635  SOLV      1787            0.0000000000
      5476      1799  TIP3      OH2            -0.9050403985      -25.6325757466      -15.9227046635  SOLV      1788            0.0000000000
      5477      1799  TIP3      H1             -1.7371803985      -25.1603057466      -15.8955646635  SOLV      1788            0.0000000000
      5478      1799  TIP3      H2             -0.3592103985      -25.1228157466      -16.5213946635  SOLV      1788            0.0000000000
      5479      1800  TIP3      OH2            -1.6166703985      -23.0202057466       -4.5929046635  SOLV      1789            0.0000000000
      5480      1800  TIP3      H1             -1.0764503985      -23.2368057466       -3.8329846635  SOLV      1789            0.0000000000
      5481      1800  TIP3      H2             -2.0978703985      -23.8256057466       -4.7826546635  SOLV      1789            0.0000000000
      5482      1801  TIP3      OH2             2.9806696015      -24.1007657466       -2.9724846635  SOLV      1790            0.0000000000
      5483      1801  TIP3      H1              3.7483896015      -24.5596857466       -2.6315646635  SOLV      1790            0.0000000000
      5484      1801  TIP3      H2              2.9592896015      -24.3267857466       -3.9023646635  SOLV      1790            0.0000000000
      5485      1802  TIP3      OH2             7.0726296015      -24.5927057466      -21.5973046635  SOLV      1791            0.0000000000
      5486      1802  TIP3      H1              6.4287296015      -25.2238457466      -21.2759346635  SOLV      1791            0.0000000000
      5487      1802  TIP3      H2              7.8344596015      -25.1239057466      -21.8289546635  SOLV      1791            0.0000000000
      5488      1803  TIP3      OH2             9.5575396015      -25.7206557466       -4.2433346635  SOLV      1792            0.0000000000
      5489      1803  TIP3      H1              9.2064896015      -26.5773557466       -4.0002946635  SOLV      1792            0.0000000000
      5490      1803  TIP3      H2             10.2838596015      -25.5779857466       -3.6364346635  SOLV      1792            0.0000000000
      5491      1804  TIP3      OH2            11.6769196015      -24.7757157466      -21.3635046635  SOLV      1793            0.0000000000
      5492      1804  TIP3      H1             11.9599596015      -25.5701957466      -20.9108146635  SOLV      1793            0.0000000000
      5493      1804  TIP3      H2             12.4167096015      -24.5426157466      -21.9243946635  SOLV      1793            0.0000000000
      5494      1805  TIP3      OH2            -1.7097203985      -29.2097957466       -3.6384746635  SOLV      1794            0.0000000000
      5495      1805  TIP3      H1             -1.5656703985      -30.1117257466       -3.9248046635  SOLV      1794            0.0000000000
      5496      1805  TIP3      H2             -2.4819803985      -28.9235857466       -4.1262446635  SOLV      1794            0.0000000000
      5497      1806  TIP3      OH2             2.6316496015      -28.8662257466      -21.5060146635  SOLV      1795            0.0000000000
      5498      1806  TIP3      H1              2.6960596015      -29.6602657466      -20.9753746635  SOLV      1795            0.0000000000
      5499      1806  TIP3      H2              3.2845696015      -28.9849457466      -22.1958146635  SOLV      1795            0.0000000000
      5500      1807  TIP3      OH2             4.9458896015      -29.2399857466       -4.2058346635  SOLV      1796            0.0000000000
      5501      1807  TIP3      H1              4.6172696015      -28.9691757466       -5.0630946635  SOLV      1796            0.0000000000
      5502      1807  TIP3      H2              5.0977096015      -30.1810057466       -4.2933346635  SOLV      1796            0.0000000000
      5503      1808  TIP3      OH2             7.9839896015      -27.8190557466      -21.7702146635  SOLV      1797            0.0000000000
      5504      1808  TIP3      H1              7.7153996015      -27.6388457466      -20.8693246635  SOLV      1797            0.0000000000
      5505      1808  TIP3      H2              7.7775496015      -28.7444357466      -21.9016346635  SOLV      1797            0.0000000000
      5506      1809  TIP3      OH2            10.6804096015      -29.3242557466       -6.8226046635  SOLV      1798            0.0000000000
      5507      1809  TIP3      H1             11.4258896015      -28.7358857466       -6.9422046635  SOLV      1798            0.0000000000
      5508      1809  TIP3      H2              9.9230896015      -28.7422857466       -6.7592946635  SOLV      1798            0.0000000000
      5509      1810  TIP3      OH2            -0.8770703985      -32.0094657466       -4.2185446635  SOLV      1799            0.0000000000
      5510      1810  TIP3      H1             -0.4689503985      -32.8668057466       -4.3394846635  SOLV      1799            0.0000000000
      5511      1810  TIP3      H2             -1.1373103985      -31.9953357466       -3.2975146635  SOLV      1799            0.0000000000
      5512      1811  TIP3      OH2             3.7810296015      -30.8936057466      -19.2002146635  SOLV      1800            0.0000000000
      5513      1811  TIP3      H1              3.3212296015      -31.3777757466      -18.5143646635  SOLV      1800            0.0000000000
      5514      1811  TIP3      H2              4.0358996015      -31.5620657466      -19.8361646635  SOLV      1800            0.0000000000
      5515      1812  TIP3      OH2             3.0699596015      -33.0008957466       -6.8442546635  SOLV      1801            0.0000000000
      5516      1812  TIP3      H1              2.4515696015      -32.3262357466       -6.5637846635  SOLV      1801            0.0000000000
      5517      1812  TIP3      H2              3.4140796015      -32.6795057466       -7.6776346635  SOLV      1801            0.0000000000
      5518      1813  TIP3      OH2             4.8520696015      -32.6504257466      -20.9378946635  SOLV      1802            0.0000000000
      5519      1813  TIP3      H1              4.6715696015      -32.8053057466      -21.8650646635  SOLV      1802            0.0000000000
      5520      1813  TIP3      H2              5.8021196015      -32.5425557466      -20.8931046635  SOLV      1802            0.0000000000
      5521      1814  TIP3      OH2             8.0897796015      -30.5293657466       -3.5667746635  SOLV      1803            0.0000000000
      5522      1814  TIP3      H1              9.0428996015      -30.4454557466       -3.5941746635  SOLV      1803            0.0000000000
      5523      1814  TIP3      H2              7.9292396015      -31.2411857466       -2.9472846635  SOLV      1803            0.0000000000
      5524      1815  TIP3      OH2             3.4093296015      -35.6458157466       -5.7619446635  SOLV      1804            0.0000000000
      5525      1815  TIP3      H1              3.5594196015      -36.3746857466       -6.3639746635  SOLV      1804            0.0000000000
      5526      1815  TIP3      H2              3.4115696015      -34.8686457466       -6.3207246635  SOLV      1804            0.0000000000
      5527      1816  TIP3      OH2             5.4037396015      -31.8366157466       -8.0296846635  SOLV      1805            0.0000000000
      5528      1816  TIP3      H1              6.1542196015      -31.9928657466       -8.6029046635  SOLV      1805            0.0000000000
      5529      1816  TIP3      H2              5.0645696015      -30.9849557466       -8.3051346635  SOLV      1805            0.0000000000
      5530      1817  TIP3      OH2             9.8193596015      -34.0214357466       -3.0011546635  SOLV      1806            0.0000000000
      5531      1817  TIP3      H1             10.0114896015      -34.9524957466       -3.1127046635  SOLV      1806            0.0000000000
      5532      1817  TIP3      H2             10.6769896015      -33.5964857466       -3.0116146635  SOLV      1806            0.0000000000
      5533      1818  TIP3      OH2            11.1360796015      -31.2329157466       -4.9238846635  SOLV      1807            0.0000000000
      5534      1818  TIP3      H1             10.8545796015      -30.5234557466       -5.5015046635  SOLV      1807            0.0000000000
      5535      1818  TIP3      H2             12.0785096015      -31.3056157466       -5.0747646635  SOLV      1807            0.0000000000
      5536      1819  TIP3      OH2             1.8879596015      -34.4474657466       -3.8503846635  SOLV      1808            0.0000000000
      5537      1819  TIP3      H1              1.1208596015      -34.9799857466       -4.0606246635  SOLV      1808            0.0000000000
      5538      1819  TIP3      H2              2.5668596015      -34.7574257466       -4.4497546635  SOLV      1808            0.0000000000
      5539      1820  TIP3      OH2             5.8914996015      -35.4981257466       -4.2740046635  SOLV      1809            0.0000000000
      5540      1820  TIP3      H1              5.6560396015      -35.7174557466       -3.3725146635  SOLV      1809            0.0000000000
      5541      1820  TIP3      H2              5.1081896015      -35.7050057466       -4.7837546635  SOLV      1809            0.0000000000
      5542      1821  TIP3      OH2             8.6071596015      -36.3707757466       -5.1986546635  SOLV      1810            0.0000000000
      5543      1821  TIP3      H1              7.6596996015      -36.3388057466       -5.0663246635  SOLV      1810            0.0000000000
      5544      1821  TIP3      H2              8.9198296015      -36.9960657466       -4.5448346635  SOLV      1810            0.0000000000
      5545      1822  TIP3      OH2             0.0682396015      -36.5270857466       -4.1459146635  SOLV      1811            0.0000000000
      5546      1822  TIP3      H1              0.2799796015      -37.2334757466       -4.7561646635  SOLV      1811            0.0000000000
      5547      1822  TIP3      H2             -0.0430103985      -36.9644857466       -3.3017946635  SOLV      1811            0.0000000000
      5548      1823  TIP3      OH2             4.7492396015      -21.9600557466      -19.9365346635  SOLV      1812            0.0000000000
      5549      1823  TIP3      H1              5.6823096015      -21.8021857466      -19.7926946635  SOLV      1812            0.0000000000
      5550      1823  TIP3      H2              4.4851196015      -21.2847557466      -20.5613846635  SOLV      1812            0.0000000000
      5551      1824  TIP3      OH2            -1.6822703985      -27.3236757466      -20.4537246635  SOLV      1813            0.0000000000
      5552      1824  TIP3      H1             -0.7683503985      -27.2447857466      -20.1803346635  SOLV      1813            0.0000000000
      5553      1824  TIP3      H2             -1.6749603985      -28.0107157466      -21.1201646635  SOLV      1813            0.0000000000
      5554      1825  TIP3      OH2            -3.0332103985      -21.9308257466      -15.3763346635  SOLV      1814            0.0000000000
      5555      1825  TIP3      H1             -3.6805003985      -22.3926557466      -15.9092146635  SOLV      1814            0.0000000000
      5556      1825  TIP3      H2             -2.6787503985      -22.6024957466      -14.7937146635  SOLV      1814            0.0000000000
      5557      1826  TIP3      OH2            -2.1632903985      -23.8501257466      -13.5717146635  SOLV      1815            0.0000000000
      5558      1826  TIP3      H1             -2.4976103985      -24.7303957466      -13.3996946635  SOLV      1815            0.0000000000
      5559      1826  TIP3      H2             -1.9410503985      -23.5046257466      -12.7071546635  SOLV      1815            0.0000000000
      5560      1827  TIP3      OH2            15.3851896015      -23.0404857466      -10.5912346635  SOLV      1816            0.0000000000
      5561      1827  TIP3      H1             15.3638596015      -22.8556457466       -9.6522946635  SOLV      1816            0.0000000000
      5562      1827  TIP3      H2             16.0758096015      -22.4720857466      -10.9320946635  SOLV      1816            0.0000000000
      5563      1828  TIP3      OH2            14.9484796015      -23.4733757466       -7.6693246635  SOLV      1817            0.0000000000
      5564      1828  TIP3      H1             14.4613496015      -24.2089657466       -8.0405846635  SOLV      1817            0.0000000000
      5565      1828  TIP3      H2             15.4977496015      -23.8669857466       -6.9913846635  SOLV      1817            0.0000000000
      5566      1829  TIP3      OH2            13.3992096015      -27.6835657466       -3.0312946635  SOLV      1818            0.0000000000
      5567      1829  TIP3      H1             12.5333196015      -27.7885957466       -2.6370646635  SOLV      1818            0.0000000000
      5568      1829  TIP3      H2             13.7757996015      -26.9252357466       -2.5848246635  SOLV      1818            0.0000000000
      5569      1830  TIP3      OH2            14.7001796015      -29.4271957466      -17.5170446635  SOLV      1819            0.0000000000
      5570      1830  TIP3      H1             15.5503196015      -29.0061057466      -17.3898846635  SOLV      1819            0.0000000000
      5571      1830  TIP3      H2             14.7056896015      -30.1671857466      -16.9099046635  SOLV      1819            0.0000000000
      5572      1831  TIP3      OH2            15.0947396015      -31.3734557466      -15.6934746635  SOLV      1820            0.0000000000
      5573      1831  TIP3      H1             14.3681996015      -31.8531957466      -15.2957146635  SOLV      1820            0.0000000000
      5574      1831  TIP3      H2             15.6760696015      -31.1679857466      -14.9613146635  SOLV      1820            0.0000000000
      5575      1832  TIP3      OH2            14.8538596015      -28.5887057466      -10.7457146635  SOLV      1821            0.0000000000
      5576      1832  TIP3      H1             15.6872796015      -28.9667057466      -11.0263546635  SOLV      1821            0.0000000000
      5577      1832  TIP3      H2             14.9658896015      -27.6455857466      -10.8648046635  SOLV      1821            0.0000000000
      5578      1833  TIP3      OH2            13.3400896015      -25.7109557466       -8.4388746635  SOLV      1822            0.0000000000
      5579      1833  TIP3      H1             12.6926196015      -25.3858057466       -7.8133546635  SOLV      1822            0.0000000000
      5580      1833  TIP3      H2             12.8224896015      -26.1511857466       -9.1130446635  SOLV      1822            0.0000000000
      5581      1834  TIP3      OH2            15.3630496015      -31.4726057466      -19.3023446635  SOLV      1823            0.0000000000
      5582      1834  TIP3      H1             14.8411596015      -31.1161957466      -20.0212546635  SOLV      1823            0.0000000000
      5583      1834  TIP3      H2             15.3299696015      -30.7978257466      -18.6242546635  SOLV      1823            0.0000000000
      5584      1835  TIP3      OH2            12.8814196015      -32.8528057466      -15.1306046635  SOLV      1824            0.0000000000
      5585      1835  TIP3      H1             12.7312996015      -33.7979457466      -15.1508246635  SOLV      1824            0.0000000000
      5586      1835  TIP3      H2             12.5278696015      -32.5716657466      -14.2866946635  SOLV      1824            0.0000000000
      5587      1836  TIP3      OH2            -2.0833403985      -30.7745857466      -11.1202246635  SOLV      1825            0.0000000000
      5588      1836  TIP3      H1             -1.8990503985      -30.8564157466      -12.0559346635  SOLV      1825            0.0000000000
      5589      1836  TIP3      H2             -1.2340503985      -30.8988857466      -10.6965846635  SOLV      1825            0.0000000000
      5590      1837  TIP3      OH2            13.7377096015      -30.8824757466       -5.4917746635  SOLV      1826            0.0000000000
      5591      1837  TIP3      H1             14.3204396015      -31.6172457466       -5.3000546635  SOLV      1826            0.0000000000
      5592      1837  TIP3      H2             14.3016396015      -30.1104457466       -5.4451946635  SOLV      1826            0.0000000000
      5593      1838  TIP3      OH2            15.2344196015      -32.9798957466       -4.8072346635  SOLV      1827            0.0000000000
      5594      1838  TIP3      H1             14.3710896015      -33.3586857466       -4.9727646635  SOLV      1827            0.0000000000
      5595      1838  TIP3      H2             15.8387896015      -33.7184157466       -4.8816546635  SOLV      1827            0.0000000000
      5596      1839  TIP3      OH2            12.5918996015      -35.2702257466      -16.6680946635  SOLV      1828            0.0000000000
      5597      1839  TIP3      H1             12.8716096015      -36.1771857466      -16.5439246635  SOLV      1828            0.0000000000
      5598      1839  TIP3      H2             13.3510696015      -34.8360757466      -17.0571746635  SOLV      1828            0.0000000000
      5599      1840  TIP3      OH2            13.2037296015      -34.6884857466      -11.2322046635  SOLV      1829            0.0000000000
      5600      1840  TIP3      H1             14.1365296015      -34.4764957466      -11.2666046635  SOLV      1829            0.0000000000
      5601      1840  TIP3      H2             12.9684796015      -34.5872757466      -10.3099046635  SOLV      1829            0.0000000000
      5602      1841  TIP3      OH2            13.2329196015      -33.9519557466       -8.4562646635  SOLV      1830            0.0000000000
      5603      1841  TIP3      H1             12.3900496015      -33.6839157466       -8.0902846635  SOLV      1830            0.0000000000
      5604      1841  TIP3      H2             13.6753496015      -33.1297657466       -8.6671546635  SOLV      1830            0.0000000000
      5605      1842  TIP3      OH2            -2.4858603985      -35.5040857466       -4.9793446635  SOLV      1831            0.0000000000
      5606      1842  TIP3      H1             -1.5663703985      -35.6262557466       -4.7430346635  SOLV      1831            0.0000000000
      5607      1842  TIP3      H2             -2.9354103985      -36.2541157466       -4.5899946635  SOLV      1831            0.0000000000
      5608      1843  TIP3      OH2            -2.9605803985      -34.1926257466      -11.0190346635  SOLV      1832            0.0000000000
      5609      1843  TIP3      H1             -2.4686003985      -34.4135757466      -11.8098346635  SOLV      1832            0.0000000000
      5610      1843  TIP3      H2             -2.5984903985      -33.3522857466      -10.7380846635  SOLV      1832            0.0000000000
      5611      1844  TIP3      OH2            12.1237896015      -22.9505457466      -15.0190546635  SOLV      1833            0.0000000000
      5612      1844  TIP3      H1             12.7760796015      -23.2983357466      -15.6271446635  SOLV      1833            0.0000000000
      5613      1844  TIP3      H2             12.6341696015      -22.4622257466      -14.3730846635  SOLV      1833            0.0000000000
      5614      1845  TIP3      OH2            -0.4914603985      -26.0214057466       -4.4759646635  SOLV      1834            0.0000000000
      5615      1845  TIP3      H1             -1.3122103985      -25.8467557466       -4.9364946635  SOLV      1834            0.0000000000
      5616      1845  TIP3      H2             -0.7436803985      -26.0949357466       -3.5555246635  SOLV      1834            0.0000000000
      5617      1846  TIP3      OH2             2.4628296015      -25.0472857466       -8.2175646635  SOLV      1835            0.0000000000
      5618      1846  TIP3      H1              2.0379396015      -24.2374357466       -8.5001046635  SOLV      1835            0.0000000000
      5619      1846  TIP3      H2              3.3671096015      -24.9618757466       -8.5195846635  SOLV      1835            0.0000000000
      5620      1847  TIP3      OH2             6.7739696015      -23.6482857466       -5.2581946635  SOLV      1836            0.0000000000
      5621      1847  TIP3      H1              6.9587196015      -23.9816757466       -4.3801646635  SOLV      1836            0.0000000000
      5622      1847  TIP3      H2              7.6204196015      -23.3384257466       -5.5802746635  SOLV      1836            0.0000000000
      5623      1848  TIP3      OH2             9.1190096015      -22.3623957466       -6.0140546635  SOLV      1837            0.0000000000
      5624      1848  TIP3      H1              9.7958996015      -22.9951657466       -6.2541346635  SOLV      1837            0.0000000000
      5625      1848  TIP3      H2              9.4408896015      -21.9613457466       -5.2067246635  SOLV      1837            0.0000000000
      5626      1849  TIP3      OH2            -0.1355003985      -21.7908957466       -8.1700346635  SOLV      1838            0.0000000000
      5627      1849  TIP3      H1             -0.8558603985      -21.3507957466       -8.6212646635  SOLV      1838            0.0000000000
      5628      1849  TIP3      H2             -0.5011003985      -22.0414257466       -7.3216346635  SOLV      1838            0.0000000000
      5629      1850  TIP3      OH2             2.3317596015      -22.1905057466       -9.1403146635  SOLV      1839            0.0000000000
      5630      1850  TIP3      H1              1.4669796015      -22.1186557466       -8.7363046635  SOLV      1839            0.0000000000
      5631      1850  TIP3      H2              2.2766596015      -21.6437757466       -9.9240646635  SOLV      1839            0.0000000000
      5632      1851  TIP3      OH2             7.0423196015      -22.3026157466       -9.9647146635  SOLV      1840            0.0000000000
      5633      1851  TIP3      H1              6.5857196015      -21.7736457466      -10.6188746635  SOLV      1840            0.0000000000
      5634      1851  TIP3      H2              7.2051196015      -21.6994757466       -9.2394846635  SOLV      1840            0.0000000000
      5635      1852  TIP3      OH2             9.3699496015      -23.4246557466       -9.0196846635  SOLV      1841            0.0000000000
      5636      1852  TIP3      H1              8.4653196015      -23.2596357466       -9.2854746635  SOLV      1841            0.0000000000
      5637      1852  TIP3      H2              9.7988096015      -22.5714357466       -9.0853446635  SOLV      1841            0.0000000000
      5638      1853  TIP3      OH2            11.9741396015      -21.8547457466       -8.7249046635  SOLV      1842            0.0000000000
      5639      1853  TIP3      H1             11.7923396015      -20.9388557466       -8.9354146635  SOLV      1842            0.0000000000
      5640      1853  TIP3      H2             12.1509196015      -22.2650357466       -9.5714446635  SOLV      1842            0.0000000000
      5641      1854  TIP3      OH2            -0.7206903985      -23.1676457466      -11.2598546635  SOLV      1843            0.0000000000
      5642      1854  TIP3      H1             -0.7390903985      -23.5931357466      -10.4026246635  SOLV      1843            0.0000000000
      5643      1854  TIP3      H2              0.0840996015      -23.4861457466      -11.6686346635  SOLV      1843            0.0000000000
      5644      1855  TIP3      OH2             1.4206196015      -24.4577757466      -12.6048646635  SOLV      1844            0.0000000000
      5645      1855  TIP3      H1              1.2016896015      -25.3740357466      -12.4352646635  SOLV      1844            0.0000000000
      5646      1855  TIP3      H2              2.2448396015      -24.3177357466      -12.1387246635  SOLV      1844            0.0000000000
      5647      1856  TIP3      OH2             3.9578696015      -23.9878457466      -11.7560646635  SOLV      1845            0.0000000000
      5648      1856  TIP3      H1              4.1704396015      -24.8759457466      -12.0429746635  SOLV      1845            0.0000000000
      5649      1856  TIP3      H2              4.0223796015      -24.0220757466      -10.8016646635  SOLV      1845            0.0000000000
      5650      1857  TIP3      OH2            -1.4697203985      -23.9437257466      -18.0886246635  SOLV      1846            0.0000000000
      5651      1857  TIP3      H1             -2.1547303985      -23.9818357466      -18.7561146635  SOLV      1846            0.0000000000
      5652      1857  TIP3      H2             -1.4660003985      -23.0309657466      -17.8004146635  SOLV      1846            0.0000000000
      5653      1858  TIP3      OH2             7.3946296015      -22.7342357466      -19.6910046635  SOLV      1847            0.0000000000
      5654      1858  TIP3      H1              8.2606496015      -22.3674957466      -19.8691846635  SOLV      1847            0.0000000000
      5655      1858  TIP3      H2              7.1479096015      -23.1734357466      -20.5049246635  SOLV      1847            0.0000000000
      5656      1859  TIP3      OH2            14.1035896015      -23.1712057466      -17.0118946635  SOLV      1848            0.0000000000
      5657      1859  TIP3      H1             13.9092996015      -23.9189957466      -17.5769346635  SOLV      1848            0.0000000000
      5658      1859  TIP3      H2             14.0645996015      -22.4131957466      -17.5951046635  SOLV      1848            0.0000000000
      5659      1860  TIP3      OH2            13.3212096015      -24.4199657466       -4.8617146635  SOLV      1849            0.0000000000
      5660      1860  TIP3      H1             12.5393996015      -24.6061657466       -5.3816546635  SOLV      1849            0.0000000000
      5661      1860  TIP3      H2             13.2491996015      -23.4905357466       -4.6444646635  SOLV      1849            0.0000000000
      5662      1861  TIP3      OH2            27.7272496015      -30.5335257466      -14.8309946635  SOLV      1850            0.0000000000
      5663      1861  TIP3      H1             27.8163596015      -29.5897057466      -14.9632846635  SOLV      1850            0.0000000000
      5664      1861  TIP3      H2             27.0890096015      -30.8088857466      -15.4890546635  SOLV      1850            0.0000000000
      5665      1862  TIP3      OH2            26.6603796015      -31.2784557466      -11.4121746635  SOLV      1851            0.0000000000
      5666      1862  TIP3      H1             26.6221296015      -31.9248257466      -10.7072146635  SOLV      1851            0.0000000000
      5667      1862  TIP3      H2             26.3380296015      -31.7450157466      -12.1833046635  SOLV      1851            0.0000000000
      5668      1863  TIP3      OH2            19.0288796015      -31.6642457466       -9.8191846635  SOLV      1852            0.0000000000
      5669      1863  TIP3      H1             19.0700896015      -32.2899157466       -9.0959446635  SOLV      1852            0.0000000000
      5670      1863  TIP3      H2             19.7316496015      -31.0403857466       -9.6371446635  SOLV      1852            0.0000000000
      5671      1864  TIP3      OH2            19.9521896015      -27.2143557466      -11.2842746635  SOLV      1853            0.0000000000
      5672      1864  TIP3      H1             19.5827096015      -28.0163057466      -11.6538446635  SOLV      1853            0.0000000000
      5673      1864  TIP3      H2             20.8932996015      -27.3828657466      -11.2379346635  SOLV      1853            0.0000000000
      5674      1865  TIP3      OH2            16.5622396015      -33.5540957466      -15.8913946635  SOLV      1854            0.0000000000
      5675      1865  TIP3      H1             16.1145796015      -32.7082257466      -15.9097446635  SOLV      1854            0.0000000000
      5676      1865  TIP3      H2             16.0013596015      -34.1336757466      -16.4068846635  SOLV      1854            0.0000000000
      5677      1866  TIP3      OH2            17.2728496015      -31.3921357466      -13.7655946635  SOLV      1855            0.0000000000
      5678      1866  TIP3      H1             17.4861996015      -32.1619757466      -13.2382946635  SOLV      1855            0.0000000000
      5679      1866  TIP3      H2             18.0106096015      -31.3024657466      -14.3688346635  SOLV      1855            0.0000000000
      5680      1867  TIP3      OH2            27.4779496015      -23.2352457466      -12.8986246635  SOLV      1856            0.0000000000
      5681      1867  TIP3      H1             28.0975896015      -23.9117757466      -13.1717046635  SOLV      1856            0.0000000000
      5682      1867  TIP3      H2             27.2696896015      -23.4531657466      -11.9901346635  SOLV      1856            0.0000000000
      5683      1868  TIP3      OH2            25.0498196015      -28.8463157466      -11.0060746635  SOLV      1857            0.0000000000
      5684      1868  TIP3      H1             25.3536096015      -29.5321757466      -11.6006646635  SOLV      1857            0.0000000000
      5685      1868  TIP3      H2             25.7712196015      -28.7274457466      -10.3882746635  SOLV      1857            0.0000000000
      5686      1869  TIP3      OH2            21.3453496015      -36.3504357466      -13.4061146635  SOLV      1858            0.0000000000
      5687      1869  TIP3      H1             21.3884596015      -35.4905857466      -13.8244846635  SOLV      1858            0.0000000000
      5688      1869  TIP3      H2             20.8877596015      -36.9029657466      -14.0397946635  SOLV      1858            0.0000000000
      5689      1870  TIP3      OH2            17.9654996015      -33.9538557466      -12.6439746635  SOLV      1859            0.0000000000
      5690      1870  TIP3      H1             18.6191596015      -34.5036857466      -12.2119646635  SOLV      1859            0.0000000000
      5691      1870  TIP3      H2             17.9894296015      -34.2279557466      -13.5607746635  SOLV      1859            0.0000000000
      5692      1871  TIP3      OH2            23.1219496015      -32.4037257466      -13.4288246635  SOLV      1860            0.0000000000
      5693      1871  TIP3      H1             23.7380496015      -32.9301857466      -12.9194246635  SOLV      1860            0.0000000000
      5694      1871  TIP3      H2             22.5358296015      -33.0438557466      -13.8324646635  SOLV      1860            0.0000000000
      5695      1872  TIP3      OH2            27.5245196015      -27.9324857466      -15.7881246635  SOLV      1861            0.0000000000
      5696      1872  TIP3      H1             27.2290296015      -28.2552557466      -16.6394346635  SOLV      1861            0.0000000000
      5697      1872  TIP3      H2             27.2002996015      -27.0328157466      -15.7468646635  SOLV      1861            0.0000000000
      5698      1873  TIP3      OH2            22.7246796015      -29.7570257466       -9.0446646635  SOLV      1862            0.0000000000
      5699      1873  TIP3      H1             21.9845896015      -29.1588757466       -8.9411446635  SOLV      1862            0.0000000000
      5700      1873  TIP3      H2             23.4386296015      -29.2030657466       -9.3603046635  SOLV      1862            0.0000000000
      5701      1874  TIP3      OH2            19.7492696015      -35.5404157466      -11.3798146635  SOLV      1863            0.0000000000
      5702      1874  TIP3      H1             20.3628996015      -34.9076557466      -11.0065746635  SOLV      1863            0.0000000000
      5703      1874  TIP3      H2             20.2613396015      -36.0129157466      -12.0361246635  SOLV      1863            0.0000000000
      5704      1875  TIP3      OH2            21.1321096015      -27.7927257466       -8.2575146635  SOLV      1864            0.0000000000
      5705      1875  TIP3      H1             21.1268696015      -26.9133757466       -8.6355846635  SOLV      1864            0.0000000000
      5706      1875  TIP3      H2             20.2785196015      -27.8763157466       -7.8325246635  SOLV      1864            0.0000000000
      5707      1876  TIP3      OH2            17.2531996015      -28.1219357466      -17.4755846635  SOLV      1865            0.0000000000
      5708      1876  TIP3      H1             16.9812896015      -27.8928357466      -18.3642946635  SOLV      1865            0.0000000000
      5709      1876  TIP3      H2             17.2987696015      -27.2840557466      -17.0150546635  SOLV      1865            0.0000000000
      5710      1877  TIP3      OH2            29.1302896015      -24.7189957466      -14.1375746635  SOLV      1866            0.0000000000
      5711      1877  TIP3      H1             29.5555196015      -25.4262057466      -14.6226146635  SOLV      1866            0.0000000000
      5712      1877  TIP3      H2             29.4472896015      -23.9177257466      -14.5543546635  SOLV      1866            0.0000000000
      5713      1878  TIP3      OH2            26.4484996015      -31.2895257466      -17.3789646635  SOLV      1867            0.0000000000
      5714      1878  TIP3      H1             25.7370496015      -30.7545557466      -17.7309146635  SOLV      1867            0.0000000000
      5715      1878  TIP3      H2             27.1394596015      -31.2343157466      -18.0390746635  SOLV      1867            0.0000000000
      5716      1879  TIP3      OH2            21.4996396015      -30.4495757466      -14.5448746635  SOLV      1868            0.0000000000
      5717      1879  TIP3      H1             21.1691596015      -30.8202357466      -15.3631746635  SOLV      1868            0.0000000000
      5718      1879  TIP3      H2             22.0880496015      -31.1201757466      -14.1980446635  SOLV      1868            0.0000000000
      5719      1880  TIP3      OH2            22.8663896015      -27.0215157466      -11.8636546635  SOLV      1869            0.0000000000
      5720      1880  TIP3      H1             22.7715196015      -27.6002057466      -12.6201946635  SOLV      1869            0.0000000000
      5721      1880  TIP3      H2             23.5957496015      -27.3929457466      -11.3673746635  SOLV      1869            0.0000000000
      5722      1881  TIP3      OH2            21.8661896015      -31.6810157466      -10.9113746635  SOLV      1870            0.0000000000
      5723      1881  TIP3      H1             22.4314396015      -31.5595957466      -11.6742546635  SOLV      1870            0.0000000000
      5724      1881  TIP3      H2             22.1850796015      -31.0435157466      -10.2725246635  SOLV      1870            0.0000000000
      5725      1882  TIP3      OH2            28.1754096015      -26.1778257466      -10.1773246635  SOLV      1871            0.0000000000
      5726      1882  TIP3      H1             27.9350696015      -25.5155157466       -9.5294046635  SOLV      1871            0.0000000000
      5727      1882  TIP3      H2             27.9772296015      -27.0123057466       -9.7523646635  SOLV      1871            0.0000000000
      5728      1883  TIP3      OH2            22.7462596015      -27.2817457466       -6.1941846635  SOLV      1872            0.0000000000
      5729      1883  TIP3      H1             22.4350096015      -26.4994257466       -5.7388646635  SOLV      1872            0.0000000000
      5730      1883  TIP3      H2             22.0962796015      -27.4348357466       -6.8799846635  SOLV      1872            0.0000000000
      5731      1884  TIP3      OH2            19.6662496015      -31.0836357466       -6.9656146635  SOLV      1873            0.0000000000
      5732      1884  TIP3      H1             19.7365696015      -30.4329557466       -6.2671146635  SOLV      1873            0.0000000000
      5733      1884  TIP3      H2             18.7754696015      -30.9808857466       -7.3005246635  SOLV      1873            0.0000000000
      5734      1885  TIP3      OH2            26.4517096015      -25.1810557466      -15.3069446635  SOLV      1874            0.0000000000
      5735      1885  TIP3      H1             26.9254696015      -24.8854257466      -14.5295246635  SOLV      1874            0.0000000000
      5736      1885  TIP3      H2             25.8886396015      -24.4428957466      -15.5399846635  SOLV      1874            0.0000000000
      5737      1886  TIP3      OH2            20.9858496015      -25.2102457466       -5.4308046635  SOLV      1875            0.0000000000
      5738      1886  TIP3      H1             20.9933796015      -25.3462757466       -6.3782546635  SOLV      1875            0.0000000000
      5739      1886  TIP3      H2             20.0698896015      -25.3274357466       -5.1788046635  SOLV      1875            0.0000000000
      5740      1887  TIP3      OH2            20.4899096015      -31.3801457466      -16.9555946635  SOLV      1876            0.0000000000
      5741      1887  TIP3      H1             20.1980396015      -30.6119757466      -17.4464646635  SOLV      1876            0.0000000000
      5742      1887  TIP3      H2             19.8154296015      -32.0395257466      -17.1184546635  SOLV      1876            0.0000000000
      5743      1888  TIP3      OH2            16.5829196015      -29.0172257466       -8.1406146635  SOLV      1877            0.0000000000
      5744      1888  TIP3      H1             16.0817596015      -29.0452857466       -8.9556446635  SOLV      1877            0.0000000000
      5745      1888  TIP3      H2             16.5882896015      -29.9229057466       -7.8308846635  SOLV      1877            0.0000000000
      5746      1889  TIP3      OH2            16.3331896015      -26.2368457466      -11.2565946635  SOLV      1878            0.0000000000
      5747      1889  TIP3      H1             17.2792496015      -26.3811457466      -11.2756446635  SOLV      1878            0.0000000000
      5748      1889  TIP3      H2             16.2208196015      -25.4525657466      -10.7194746635  SOLV      1878            0.0000000000
      5749      1890  TIP3      OH2            25.5094396015      -25.9969557466       -6.6980846635  SOLV      1879            0.0000000000
      5750      1890  TIP3      H1             25.5968996015      -25.1704957466       -6.2231746635  SOLV      1879            0.0000000000
      5751      1890  TIP3      H2             24.6459496015      -26.3265757466       -6.4491546635  SOLV      1879            0.0000000000
      5752      1891  TIP3      OH2            25.9240196015      -22.2245857466      -16.8920246635  SOLV      1880            0.0000000000
      5753      1891  TIP3      H1             25.8486196015      -22.3458657466      -17.8385046635  SOLV      1880            0.0000000000
      5754      1891  TIP3      H2             25.9568896015      -21.2753157466      -16.7735646635  SOLV      1880            0.0000000000
      5755      1892  TIP3      OH2            19.5773996015      -23.4358857466      -15.1111246635  SOLV      1881            0.0000000000
      5756      1892  TIP3      H1             19.7294396015      -23.7838457466      -14.2324746635  SOLV      1881            0.0000000000
      5757      1892  TIP3      H2             18.7264396015      -23.7921557466      -15.3664046635  SOLV      1881            0.0000000000
      5758      1893  TIP3      OH2            29.0256196015      -23.0705657466      -19.8897846635  SOLV      1882            0.0000000000
      5759      1893  TIP3      H1             29.4004596015      -23.8149557466      -20.3605246635  SOLV      1882            0.0000000000
      5760      1893  TIP3      H2             29.0299896015      -23.3405057466      -18.9714546635  SOLV      1882            0.0000000000
      5761      1894  TIP3      OH2            28.6944296015      -23.1448557466      -17.1405646635  SOLV      1883            0.0000000000
      5762      1894  TIP3      H1             27.7594096015      -23.0446657466      -16.9618646635  SOLV      1883            0.0000000000
      5763      1894  TIP3      H2             28.9746196015      -23.8542557466      -16.5622446635  SOLV      1883            0.0000000000
      5764      1895  TIP3      OH2            18.8319696015      -27.6936857466       -7.0973346635  SOLV      1884            0.0000000000
      5765      1895  TIP3      H1             19.0480996015      -28.0551257466       -6.2377546635  SOLV      1884            0.0000000000
      5766      1895  TIP3      H2             17.9764396015      -28.0683057466       -7.3069846635  SOLV      1884            0.0000000000
      5767      1896  TIP3      OH2            21.5417796015      -34.2581857466      -10.0068946635  SOLV      1885            0.0000000000
      5768      1896  TIP3      H1             20.8999896015      -34.2984557466       -9.2978846635  SOLV      1885            0.0000000000
      5769      1896  TIP3      H2             21.5789796015      -33.3317157466      -10.2445946635  SOLV      1885            0.0000000000
      5770      1897  TIP3      OH2            21.5386896015      -34.0371757466      -15.0948946635  SOLV      1886            0.0000000000
      5771      1897  TIP3      H1             20.6459796015      -34.3775657466      -15.1535146635  SOLV      1886            0.0000000000
      5772      1897  TIP3      H2             21.9893496015      -34.4140857466      -15.8505746635  SOLV      1886            0.0000000000
      5773      1898  TIP3      OH2            27.0742396015      -33.6211457466      -16.2778146635  SOLV      1887            0.0000000000
      5774      1898  TIP3      H1             26.6652696015      -32.8062857466      -16.5693346635  SOLV      1887            0.0000000000
      5775      1898  TIP3      H2             27.7948596015      -33.7611357466      -16.8921046635  SOLV      1887            0.0000000000
      5776      1899  TIP3      OH2            26.1763996015      -33.4455057466       -4.7897446635  SOLV      1888            0.0000000000
      5777      1899  TIP3      H1             25.6137796015      -34.1503457466       -4.4689646635  SOLV      1888            0.0000000000
      5778      1899  TIP3      H2             27.0027396015      -33.5663157466       -4.3219846635  SOLV      1888            0.0000000000
      5779      1900  TIP3      OH2            19.2918296015      -33.9378357466       -8.1396946635  SOLV      1889            0.0000000000
      5780      1900  TIP3      H1             19.2537696015      -33.5376757466       -7.2709846635  SOLV      1889            0.0000000000
      5781      1900  TIP3      H2             18.8009396015      -34.7545957466       -8.0494046635  SOLV      1889            0.0000000000
      5782      1901  TIP3      OH2            17.1741196015      -36.0754557466      -18.8651846635  SOLV      1890            0.0000000000
      5783      1901  TIP3      H1             17.6482896015      -35.4844657466      -19.4500946635  SOLV      1890            0.0000000000
      5784      1901  TIP3      H2             16.4567596015      -35.5451657466      -18.5181746635  SOLV      1890            0.0000000000
      5785      1902  TIP3      OH2            27.3429296015      -32.5369757466       -8.7926046635  SOLV      1891            0.0000000000
      5786      1902  TIP3      H1             27.6664096015      -33.1680057466       -9.4355546635  SOLV      1891            0.0000000000
      5787      1902  TIP3      H2             26.9028596015      -33.0717557466       -8.1318646635  SOLV      1891            0.0000000000
      5788      1903  TIP3      OH2            24.1202196015      -36.6094257466      -14.0084846635  SOLV      1892            0.0000000000
      5789      1903  TIP3      H1             23.2093296015      -36.5527457466      -13.7198846635  SOLV      1892            0.0000000000
      5790      1903  TIP3      H2             24.6255096015      -36.6698757466      -13.1977646635  SOLV      1892            0.0000000000
      5791      1904  TIP3      OH2            18.9485596015      -34.9807957466      -15.1817246635  SOLV      1893            0.0000000000
      5792      1904  TIP3      H1             18.0593596015      -34.8812457466      -15.5217646635  SOLV      1893            0.0000000000
      5793      1904  TIP3      H2             19.2450496015      -35.8224957466      -15.5279346635  SOLV      1893            0.0000000000
      5794      1905  TIP3      OH2            22.6017396015      -34.9805357466      -17.5252646635  SOLV      1894            0.0000000000
      5795      1905  TIP3      H1             23.5332896015      -34.8515357466      -17.3469546635  SOLV      1894            0.0000000000
      5796      1905  TIP3      H2             22.3867696015      -34.3111057466      -18.1747946635  SOLV      1894            0.0000000000
      5797      1906  TIP3      OH2            21.2757596015      -33.7863157466      -19.9586546635  SOLV      1895            0.0000000000
      5798      1906  TIP3      H1             20.7332696015      -34.1659357466      -20.6498946635  SOLV      1895            0.0000000000
      5799      1906  TIP3      H2             22.1092496015      -33.5918457466      -20.3872446635  SOLV      1895            0.0000000000
      5800      1907  TIP3      OH2            19.4108996015      -29.2291257466       -4.8594946635  SOLV      1896            0.0000000000
      5801      1907  TIP3      H1             20.1431396015      -28.9745357466       -4.2980446635  SOLV      1896            0.0000000000
      5802      1907  TIP3      H2             18.6307696015      -29.0245857466       -4.3439546635  SOLV      1896            0.0000000000
      5803      1908  TIP3      OH2            25.4401896015      -33.8221257466      -12.1215246635  SOLV      1897            0.0000000000
      5804      1908  TIP3      H1             26.0045296015      -34.3684657466      -12.6685646635  SOLV      1897            0.0000000000
      5805      1908  TIP3      H2             25.2925296015      -34.3439357466      -11.3327646635  SOLV      1897            0.0000000000
      5806      1909  TIP3      OH2            24.0667796015      -35.4335157466       -9.7074846635  SOLV      1898            0.0000000000
      5807      1909  TIP3      H1             23.2313096015      -34.9795657466       -9.5972446635  SOLV      1898            0.0000000000
      5808      1909  TIP3      H2             24.5908396015      -35.1576657466       -8.9554946635  SOLV      1898            0.0000000000
      5809      1910  TIP3      OH2            24.6110396015      -29.2207457466      -18.0228446635  SOLV      1899            0.0000000000
      5810      1910  TIP3      H1             23.8661396015      -29.7282157466      -18.3450546635  SOLV      1899            0.0000000000
      5811      1910  TIP3      H2             24.4767596015      -29.1719457466      -17.0763646635  SOLV      1899            0.0000000000
      5812      1911  TIP3      OH2            26.1302496015      -29.0364157466       -6.7859346635  SOLV      1900            0.0000000000
      5813      1911  TIP3      H1             25.7848596015      -29.4181757466       -5.9789746635  SOLV      1900            0.0000000000
      5814      1911  TIP3      H2             25.9302596015      -28.1030557466       -6.7146446635  SOLV      1900            0.0000000000
      5815      1912  TIP3      OH2            19.7358696015      -29.9257457466      -12.2530546635  SOLV      1901            0.0000000000
      5816      1912  TIP3      H1             20.4805896015      -29.9281757466      -12.8544046635  SOLV      1901            0.0000000000
      5817      1912  TIP3      H2             19.8135296015      -30.7493657466      -11.7715446635  SOLV      1901            0.0000000000
      5818      1913  TIP3      OH2            26.7364496015      -27.7623157466      -18.9973846635  SOLV      1902            0.0000000000
      5819      1913  TIP3      H1             26.4412896015      -26.9355257466      -18.6159046635  SOLV      1902            0.0000000000
      5820      1913  TIP3      H2             26.0334496015      -28.3816257466      -18.8012446635  SOLV      1902            0.0000000000
      5821      1914  TIP3      OH2            16.7438396015      -31.4650557466       -6.9382046635  SOLV      1903            0.0000000000
      5822      1914  TIP3      H1             16.9666996015      -31.8830957466       -6.1064546635  SOLV      1903            0.0000000000
      5823      1914  TIP3      H2             16.1418496015      -32.0775557466       -7.3609246635  SOLV      1903            0.0000000000
      5824      1915  TIP3      OH2            23.7603296015      -31.9480657466       -4.7252346635  SOLV      1904            0.0000000000
      5825      1915  TIP3      H1             23.4644096015      -32.1137657466       -5.6203246635  SOLV      1904            0.0000000000
      5826      1915  TIP3      H2             24.6918496015      -32.1680357466       -4.7358446635  SOLV      1904            0.0000000000
      5827      1916  TIP3      OH2            28.3806096015      -26.5748657466       -6.8354346635  SOLV      1905            0.0000000000
      5828      1916  TIP3      H1             27.4800396015      -26.3916057466       -7.1030446635  SOLV      1905            0.0000000000
      5829      1916  TIP3      H2             28.4147196015      -26.3159357466       -5.9145546635  SOLV      1905            0.0000000000
      5830      1917  TIP3      OH2            22.1108096015      -26.4079257466      -14.8489046635  SOLV      1906            0.0000000000
      5831      1917  TIP3      H1             22.6380296015      -25.6344857466      -15.0490246635  SOLV      1906            0.0000000000
      5832      1917  TIP3      H2             21.2306596015      -26.1830057466      -15.1505046635  SOLV      1906            0.0000000000
      5833      1918  TIP3      OH2            17.8655796015      -31.5455157466      -20.2616646635  SOLV      1907            0.0000000000
      5834      1918  TIP3      H1             18.4815696015      -30.9187957466      -19.8821846635  SOLV      1907            0.0000000000
      5835      1918  TIP3      H2             17.0038396015      -31.2295357466      -19.9900146635  SOLV      1907            0.0000000000
      5836      1919  TIP3      OH2            23.5380396015      -28.7449357466      -15.2724746635  SOLV      1908            0.0000000000
      5837      1919  TIP3      H1             23.2970396015      -27.8194957466      -15.2309446635  SOLV      1908            0.0000000000
      5838      1919  TIP3      H2             22.7973996015      -29.2038057466      -14.8760846635  SOLV      1908            0.0000000000
      5839      1920  TIP3      OH2            24.0526996015      -24.5955757466       -8.9573646635  SOLV      1909            0.0000000000
      5840      1920  TIP3      H1             24.4151696015      -23.7410157466       -9.1909246635  SOLV      1909            0.0000000000
      5841      1920  TIP3      H2             24.5842196015      -24.8874157466       -8.2167346635  SOLV      1909            0.0000000000
      5842      1921  TIP3      OH2            22.2211196015      -23.7231757466      -15.7272546635  SOLV      1910            0.0000000000
      5843      1921  TIP3      H1             21.2711696015      -23.6174357466      -15.6759246635  SOLV      1910            0.0000000000
      5844      1921  TIP3      H2             22.5729296015      -22.9024357466      -15.3825046635  SOLV      1910            0.0000000000
      5845      1922  TIP3      OH2            27.5967796015      -28.4965057466       -9.2568046635  SOLV      1911            0.0000000000
      5846      1922  TIP3      H1             27.1709096015      -28.7243357466       -8.4304046635  SOLV      1911            0.0000000000
      5847      1922  TIP3      H2             28.1773596015      -29.2353257466       -9.4392746635  SOLV      1911            0.0000000000
      5848      1923  TIP3      OH2            30.2551996015      -23.9445557466       -6.7873246635  SOLV      1912            0.0000000000
      5849      1923  TIP3      H1             29.6535196015      -24.5002657466       -7.2826946635  SOLV      1912            0.0000000000
      5850      1923  TIP3      H2             30.5365696015      -23.2775757466       -7.4135846635  SOLV      1912            0.0000000000
      5851      1924  TIP3      OH2            18.3777896015      -36.7117857466       -7.3800646635  SOLV      1913            0.0000000000
      5852      1924  TIP3      H1             17.4850196015      -36.3732457466       -7.4476646635  SOLV      1913            0.0000000000
      5853      1924  TIP3      H2             18.2790696015      -37.5671757466       -6.9619846635  SOLV      1913            0.0000000000
      5854      1925  TIP3      OH2            18.0289896015      -24.9073457466       -8.9451246635  SOLV      1914            0.0000000000
      5855      1925  TIP3      H1             18.2460196015      -25.8391057466       -8.9761546635  SOLV      1914            0.0000000000
      5856      1925  TIP3      H2             18.2753396015      -24.6328457466       -8.0618446635  SOLV      1914            0.0000000000
      5857      1926  TIP3      OH2            23.8904496015      -26.4558457466      -21.7359046635  SOLV      1915            0.0000000000
      5858      1926  TIP3      H1             24.1294296015      -27.2040357466      -22.2830146635  SOLV      1915            0.0000000000
      5859      1926  TIP3      H2             23.6215796015      -26.8436757466      -20.9031246635  SOLV      1915            0.0000000000
      5860      1927  TIP3      OH2            22.8275096015      -26.8854657466      -19.2796446635  SOLV      1916            0.0000000000
      5861      1927  TIP3      H1             22.9743096015      -27.4054857466      -18.4895546635  SOLV      1916            0.0000000000
      5862      1927  TIP3      H2             22.8246796015      -25.9787057466      -18.9730546635  SOLV      1916            0.0000000000
      5863      1928  TIP3      OH2            19.2806196015      -29.6331357466      -18.7691046635  SOLV      1917            0.0000000000
      5864      1928  TIP3      H1             18.5945496015      -29.2808857466      -18.2021346635  SOLV      1917            0.0000000000
      5865      1928  TIP3      H2             19.8034096015      -28.8701757466      -19.0156746635  SOLV      1917            0.0000000000
      5866      1929  TIP3      OH2            25.5652296015      -25.1881057466      -18.5302246635  SOLV      1918            0.0000000000
      5867      1929  TIP3      H1             24.7488396015      -24.6911357466      -18.4777946635  SOLV      1918            0.0000000000
      5868      1929  TIP3      H2             26.0948596015      -24.7127557466      -19.1703446635  SOLV      1918            0.0000000000
      5869      1930  TIP3      OH2            25.0966096015      -35.5907057466      -16.5581346635  SOLV      1919            0.0000000000
      5870      1930  TIP3      H1             25.9088696015      -35.0863857466      -16.5119646635  SOLV      1919            0.0000000000
      5871      1930  TIP3      H2             24.8519096015      -35.7357357466      -15.6441746635  SOLV      1919            0.0000000000
      5872      1931  TIP3      OH2            25.6322496015      -34.6044357466       -7.3734746635  SOLV      1920            0.0000000000
      5873      1931  TIP3      H1             25.7512796015      -34.0308957466       -6.6164346635  SOLV      1920            0.0000000000
      5874      1931  TIP3      H2             26.2877096015      -35.2924957466       -7.2586946635  SOLV      1920            0.0000000000
      5875      1932  TIP3      OH2            22.9035396015      -24.1443857466      -18.5485346635  SOLV      1921            0.0000000000
      5876      1932  TIP3      H1             23.0644096015      -23.3446357466      -19.0492746635  SOLV      1921            0.0000000000
      5877      1932  TIP3      H2             22.7063196015      -23.8377857466      -17.6634746635  SOLV      1921            0.0000000000
      5878      1933  TIP3      OH2            19.8965096015      -27.0192457466      -19.8723246635  SOLV      1922            0.0000000000
      5879      1933  TIP3      H1             20.4886596015      -26.3197657466      -19.5960846635  SOLV      1922            0.0000000000
      5880      1933  TIP3      H2             20.3558096015      -27.4522957466      -20.5918646635  SOLV      1922            0.0000000000
      5881      1934  TIP3      OH2            18.2124296015      -34.3549457466      -20.7563846635  SOLV      1923            0.0000000000
      5882      1934  TIP3      H1             18.1676896015      -33.4156357466      -20.5776846635  SOLV      1923            0.0000000000
      5883      1934  TIP3      H2             17.3247496015      -34.5904557466      -21.0261746635  SOLV      1923            0.0000000000
      5884      1935  TIP3      OH2            17.9509596015      -25.6325757466      -15.9227046635  SOLV      1924            0.0000000000
      5885      1935  TIP3      H1             17.1188196015      -25.1603057466      -15.8955646635  SOLV      1924            0.0000000000
      5886      1935  TIP3      H2             18.4967896015      -25.1228157466      -16.5213946635  SOLV      1924            0.0000000000
      5887      1936  TIP3      OH2            17.2393296015      -23.0202057466       -4.5929046635  SOLV      1925            0.0000000000
      5888      1936  TIP3      H1             17.7795496015      -23.2368057466       -3.8329846635  SOLV      1925            0.0000000000
      5889      1936  TIP3      H2             16.7581296015      -23.8256057466       -4.7826546635  SOLV      1925            0.0000000000
      5890      1937  TIP3      OH2            21.8366696015      -24.1007657466       -2.9724846635  SOLV      1926            0.0000000000
      5891      1937  TIP3      H1             22.6043896015      -24.5596857466       -2.6315646635  SOLV      1926            0.0000000000
      5892      1937  TIP3      H2             21.8152896015      -24.3267857466       -3.9023646635  SOLV      1926            0.0000000000
      5893      1938  TIP3      OH2            25.9286296015      -24.5927057466      -21.5973046635  SOLV      1927            0.0000000000
      5894      1938  TIP3      H1             25.2847296015      -25.2238457466      -21.2759346635  SOLV      1927            0.0000000000
      5895      1938  TIP3      H2             26.6904596015      -25.1239057466      -21.8289546635  SOLV      1927            0.0000000000
      5896      1939  TIP3      OH2            28.4135396015      -25.7206557466       -4.2433346635  SOLV      1928            0.0000000000
      5897      1939  TIP3      H1             28.0624896015      -26.5773557466       -4.0002946635  SOLV      1928            0.0000000000
      5898      1939  TIP3      H2             29.1398596015      -25.5779857466       -3.6364346635  SOLV      1928            0.0000000000
      5899      1940  TIP3      OH2            17.1462796015      -29.2097957466       -3.6384746635  SOLV      1929            0.0000000000
      5900      1940  TIP3      H1             17.2903296015      -30.1117257466       -3.9248046635  SOLV      1929            0.0000000000
      5901      1940  TIP3      H2             16.3740196015      -28.9235857466       -4.1262446635  SOLV      1929            0.0000000000
      5902      1941  TIP3      OH2            21.4876496015      -28.8662257466      -21.5060146635  SOLV      1930            0.0000000000
      5903      1941  TIP3      H1             21.5520596015      -29.6602657466      -20.9753746635  SOLV      1930            0.0000000000
      5904      1941  TIP3      H2             22.1405696015      -28.9849457466      -22.1958146635  SOLV      1930            0.0000000000
      5905      1942  TIP3      OH2            23.8018896015      -29.2399857466       -4.2058346635  SOLV      1931            0.0000000000
      5906      1942  TIP3      H1             23.4732696015      -28.9691757466       -5.0630946635  SOLV      1931            0.0000000000
      5907      1942  TIP3      H2             23.9537096015      -30.1810057466       -4.2933346635  SOLV      1931            0.0000000000
      5908      1943  TIP3      OH2            26.8399896015      -27.8190557466      -21.7702146635  SOLV      1932            0.0000000000
      5909      1943  TIP3      H1             26.5713996015      -27.6388457466      -20.8693246635  SOLV      1932            0.0000000000
      5910      1943  TIP3      H2             26.6335496015      -28.7444357466      -21.9016346635  SOLV      1932            0.0000000000
      5911      1944  TIP3      OH2            17.9789296015      -32.0094657466       -4.2185446635  SOLV      1933            0.0000000000
      5912      1944  TIP3      H1             18.3870496015      -32.8668057466       -4.3394846635  SOLV      1933            0.0000000000
      5913      1944  TIP3      H2             17.7186896015      -31.9953357466       -3.2975146635  SOLV      1933            0.0000000000
      5914      1945  TIP3      OH2            22.6370296015      -30.8936057466      -19.2002146635  SOLV      1934            0.0000000000
      5915      1945  TIP3      H1             22.1772296015      -31.3777757466      -18.5143646635  SOLV      1934            0.0000000000
      5916      1945  TIP3      H2             22.8918996015      -31.5620657466      -19.8361646635  SOLV      1934            0.0000000000
      5917      1946  TIP3      OH2            21.9259596015      -33.0008957466       -6.8442546635  SOLV      1935            0.0000000000
      5918      1946  TIP3      H1             21.3075696015      -32.3262357466       -6.5637846635  SOLV      1935            0.0000000000
      5919      1946  TIP3      H2             22.2700796015      -32.6795057466       -7.6776346635  SOLV      1935            0.0000000000
      5920      1947  TIP3      OH2            26.9457796015      -30.5293657466       -3.5667746635  SOLV      1936            0.0000000000
      5921      1947  TIP3      H1             27.8988996015      -30.4454557466       -3.5941746635  SOLV      1936            0.0000000000
      5922      1947  TIP3      H2             26.7852396015      -31.2411857466       -2.9472846635  SOLV      1936            0.0000000000
      5923      1948  TIP3      OH2            22.2653296015      -35.6458157466       -5.7619446635  SOLV      1937            0.0000000000
      5924      1948  TIP3      H1             22.4154196015      -36.3746857466       -6.3639746635  SOLV      1937            0.0000000000
      5925      1948  TIP3      H2             22.2675696015      -34.8686457466       -6.3207246635  SOLV      1937            0.0000000000
      5926      1949  TIP3      OH2            24.2597396015      -31.8366157466       -8.0296846635  SOLV      1938            0.0000000000
      5927      1949  TIP3      H1             25.0102196015      -31.9928657466       -8.6029046635  SOLV      1938            0.0000000000
      5928      1949  TIP3      H2             23.9205696015      -30.9849557466       -8.3051346635  SOLV      1938            0.0000000000
      5929      1950  TIP3      OH2            20.7439596015      -34.4474657466       -3.8503846635  SOLV      1939            0.0000000000
      5930      1950  TIP3      H1             19.9768596015      -34.9799857466       -4.0606246635  SOLV      1939            0.0000000000
      5931      1950  TIP3      H2             21.4228596015      -34.7574257466       -4.4497546635  SOLV      1939            0.0000000000
      5932      1951  TIP3      OH2            24.7474996015      -35.4981257466       -4.2740046635  SOLV      1940            0.0000000000
      5933      1951  TIP3      H1             24.5120396015      -35.7174557466       -3.3725146635  SOLV      1940            0.0000000000
      5934      1951  TIP3      H2             23.9641896015      -35.7050057466       -4.7837546635  SOLV      1940            0.0000000000
      5935      1952  TIP3      OH2            18.9242396015      -36.5270857466       -4.1459146635  SOLV      1941            0.0000000000
      5936      1952  TIP3      H1             19.1359796015      -37.2334757466       -4.7561646635  SOLV      1941            0.0000000000
      5937      1952  TIP3      H2             18.8129896015      -36.9644857466       -3.3017946635  SOLV      1941            0.0000000000
      5938      1953  TIP3      OH2            23.6052396015      -21.9600557466      -19.9365346635  SOLV      1942            0.0000000000
      5939      1953  TIP3      H1             24.5383096015      -21.8021857466      -19.7926946635  SOLV      1942            0.0000000000
      5940      1953  TIP3      H2             23.3411196015      -21.2847557466      -20.5613846635  SOLV      1942            0.0000000000
      5941      1954  TIP3      OH2            17.1737296015      -27.3236757466      -20.4537246635  SOLV      1943            0.0000000000
      5942      1954  TIP3      H1             18.0876496015      -27.2447857466      -20.1803346635  SOLV      1943            0.0000000000
      5943      1954  TIP3      H2             17.1810396015      -28.0107157466      -21.1201646635  SOLV      1943            0.0000000000
      5944      1955  TIP3      OH2            15.8227896015      -21.9308257466      -15.3763346635  SOLV      1944            0.0000000000
      5945      1955  TIP3      H1             15.1754996015      -22.3926557466      -15.9092146635  SOLV      1944            0.0000000000
      5946      1955  TIP3      H2             16.1772496015      -22.6024957466      -14.7937146635  SOLV      1944            0.0000000000
      5947      1956  TIP3      OH2            16.6927096015      -23.8501257466      -13.5717146635  SOLV      1945            0.0000000000
      5948      1956  TIP3      H1             16.3583896015      -24.7303957466      -13.3996946635  SOLV      1945            0.0000000000
      5949      1956  TIP3      H2             16.9149496015      -23.5046257466      -12.7071546635  SOLV      1945            0.0000000000
      5950      1957  TIP3      OH2            16.7726596015      -30.7745857466      -11.1202246635  SOLV      1946            0.0000000000
      5951      1957  TIP3      H1             16.9569496015      -30.8564157466      -12.0559346635  SOLV      1946            0.0000000000
      5952      1957  TIP3      H2             17.6219496015      -30.8988857466      -10.6965846635  SOLV      1946            0.0000000000
      5953      1958  TIP3      OH2            16.3701396015      -35.5040857466       -4.9793446635  SOLV      1947            0.0000000000
      5954      1958  TIP3      H1             17.2896296015      -35.6262557466       -4.7430346635  SOLV      1947            0.0000000000
      5955      1958  TIP3      H2             15.9205896015      -36.2541157466       -4.5899946635  SOLV      1947            0.0000000000
      5956      1959  TIP3      OH2            15.8954196015      -34.1926257466      -11.0190346635  SOLV      1948            0.0000000000
      5957      1959  TIP3      H1             16.3873996015      -34.4135757466      -11.8098346635  SOLV      1948            0.0000000000
      5958      1959  TIP3      H2             16.2575096015      -33.3522857466      -10.7380846635  SOLV      1948            0.0000000000
      5959      1960  TIP3      OH2            18.3645396015      -26.0214057466       -4.4759646635  SOLV      1949            0.0000000000
      5960      1960  TIP3      H1             17.5437896015      -25.8467557466       -4.9364946635  SOLV      1949            0.0000000000
      5961      1960  TIP3      H2             18.1123196015      -26.0949357466       -3.5555246635  SOLV      1949            0.0000000000
      5962      1961  TIP3      OH2            21.3188296015      -25.0472857466       -8.2175646635  SOLV      1950            0.0000000000
      5963      1961  TIP3      H1             20.8939396015      -24.2374357466       -8.5001046635  SOLV      1950            0.0000000000
      5964      1961  TIP3      H2             22.2231096015      -24.9618757466       -8.5195846635  SOLV      1950            0.0000000000
      5965      1962  TIP3      OH2            25.6299696015      -23.6482857466       -5.2581946635  SOLV      1951            0.0000000000
      5966      1962  TIP3      H1             25.8147196015      -23.9816757466       -4.3801646635  SOLV      1951            0.0000000000
      5967      1962  TIP3      H2             26.4764196015      -23.3384257466       -5.5802746635  SOLV      1951            0.0000000000
      5968      1963  TIP3      OH2            27.9750096015      -22.3623957466       -6.0140546635  SOLV      1952            0.0000000000
      5969      1963  TIP3      H1             28.6518996015      -22.9951657466       -6.2541346635  SOLV      1952            0.0000000000
      5970      1963  TIP3      H2             28.2968896015      -21.9613457466       -5.2067246635  SOLV      1952            0.0000000000
      5971      1964  TIP3      OH2            18.7204996015      -21.7908957466       -8.1700346635  SOLV      1953            0.0000000000
      5972      1964  TIP3      H1             18.0001396015      -21.3507957466       -8.6212646635  SOLV      1953            0.0000000000
      5973      1964  TIP3      H2             18.3548996015      -22.0414257466       -7.3216346635  SOLV      1953            0.0000000000
      5974      1965  TIP3      OH2            21.1877596015      -22.1905057466       -9.1403146635  SOLV      1954            0.0000000000
      5975      1965  TIP3      H1             20.3229796015      -22.1186557466       -8.7363046635  SOLV      1954            0.0000000000
      5976      1965  TIP3      H2             21.1326596015      -21.6437757466       -9.9240646635  SOLV      1954            0.0000000000
      5977      1966  TIP3      OH2            25.8983196015      -22.3026157466       -9.9647146635  SOLV      1955            0.0000000000
      5978      1966  TIP3      H1             25.4417196015      -21.7736457466      -10.6188746635  SOLV      1955            0.0000000000
      5979      1966  TIP3      H2             26.0611196015      -21.6994757466       -9.2394846635  SOLV      1955            0.0000000000
      5980      1967  TIP3      OH2            28.2259496015      -23.4246557466       -9.0196846635  SOLV      1956            0.0000000000
      5981      1967  TIP3      H1             27.3213196015      -23.2596357466       -9.2854746635  SOLV      1956            0.0000000000
      5982      1967  TIP3      H2             28.6548096015      -22.5714357466       -9.0853446635  SOLV      1956            0.0000000000
      5983      1968  TIP3      OH2            30.8301396015      -21.8547457466       -8.7249046635  SOLV      1957            0.0000000000
      5984      1968  TIP3      H1             30.6483396015      -20.9388557466       -8.9354146635  SOLV      1957            0.0000000000
      5985      1968  TIP3      H2             31.0069196015      -22.2650357466       -9.5714446635  SOLV      1957            0.0000000000
      5986      1969  TIP3      OH2            18.1353096015      -23.1676457466      -11.2598546635  SOLV      1958            0.0000000000
      5987      1969  TIP3      H1             18.1169096015      -23.5931357466      -10.4026246635  SOLV      1958            0.0000000000
      5988      1969  TIP3      H2             18.9400996015      -23.4861457466      -11.6686346635  SOLV      1958            0.0000000000
      5989      1970  TIP3      OH2            20.2766196015      -24.4577757466      -12.6048646635  SOLV      1959            0.0000000000
      5990      1970  TIP3      H1             20.0576896015      -25.3740357466      -12.4352646635  SOLV      1959            0.0000000000
      5991      1970  TIP3      H2             21.1008396015      -24.3177357466      -12.1387246635  SOLV      1959            0.0000000000
      5992      1971  TIP3      OH2            22.8138696015      -23.9878457466      -11.7560646635  SOLV      1960            0.0000000000
      5993      1971  TIP3      H1             23.0264396015      -24.8759457466      -12.0429746635  SOLV      1960            0.0000000000
      5994      1971  TIP3      H2             22.8783796015      -24.0220757466      -10.8016646635  SOLV      1960            0.0000000000
      5995      1972  TIP3      OH2            17.3862796015      -23.9437257466      -18.0886246635  SOLV      1961            0.0000000000
      5996      1972  TIP3      H1             16.7012696015      -23.9818357466      -18.7561146635  SOLV      1961            0.0000000000
      5997      1972  TIP3      H2             17.3899996015      -23.0309657466      -17.8004146635  SOLV      1961            0.0000000000
      5998      1973  TIP3      OH2            26.2506296015      -22.7342357466      -19.6910046635  SOLV      1962            0.0000000000
      5999      1973  TIP3      H1             27.1166496015      -22.3674957466      -19.8691846635  SOLV      1962            0.0000000000
      6000      1973  TIP3      H2             26.0039096015      -23.1734357466      -20.5049246635  SOLV      1962            0.0000000000
      6001      1974  TIP3      OH2            19.2043996015      -23.0236457466      -21.0634146635  SOLV      1963            0.0000000000
      6002      1974  TIP3      H1             18.9368596015      -22.7373557466      -20.1901046635  SOLV      1963            0.0000000000
      6003      1974  TIP3      H2             19.9756596015      -23.5697257466      -20.9111646635  SOLV      1963            0.0000000000
      6004      1975  TIP3      OH2           -28.8407503985      -11.6775257466      -14.8309946635  SOLV      1964            0.0000000000
      6005      1975  TIP3      H1            -28.7516403985      -10.7337057466      -14.9632846635  SOLV      1964            0.0000000000
      6006      1975  TIP3      H2            -29.4789903985      -11.9528857466      -15.4890546635  SOLV      1964            0.0000000000
      6007      1976  TIP3      OH2           -29.9076203985      -12.4224557466      -11.4121746635  SOLV      1965            0.0000000000
      6008      1976  TIP3      H1            -29.9458703985      -13.0688257466      -10.7072146635  SOLV      1965            0.0000000000
      6009      1976  TIP3      H2            -30.2299703985      -12.8890157466      -12.1833046635  SOLV      1965            0.0000000000
      6010      1977  TIP3      OH2           -37.5391203985      -12.8082457466       -9.8191846635  SOLV      1966            0.0000000000
      6011      1977  TIP3      H1            -37.4979103985      -13.4339157466       -9.0959446635  SOLV      1966            0.0000000000
      6012      1977  TIP3      H2            -36.8363503985      -12.1843857466       -9.6371446635  SOLV      1966            0.0000000000
      6013      1978  TIP3      OH2           -26.2016003985       -9.4834157466      -13.1106646635  SOLV      1967            0.0000000000
      6014      1978  TIP3      H1            -26.6423303985      -10.2038157466      -12.6601046635  SOLV      1967            0.0000000000
      6015      1978  TIP3      H2            -26.2146303985       -8.7626957466      -12.4808946635  SOLV      1967            0.0000000000
      6016      1979  TIP3      OH2           -36.6158103985       -8.3583557466      -11.2842746635  SOLV      1968            0.0000000000
      6017      1979  TIP3      H1            -36.9852903985       -9.1603057466      -11.6538446635  SOLV      1968            0.0000000000
      6018      1979  TIP3      H2            -35.6747003985       -8.5268657466      -11.2379346635  SOLV      1968            0.0000000000
      6019      1980  TIP3      OH2           -40.0057603985      -14.6980957466      -15.8913946635  SOLV      1969            0.0000000000
      6020      1980  TIP3      H1            -40.4534203985      -13.8522257466      -15.9097446635  SOLV      1969            0.0000000000
      6021      1980  TIP3      H2            -40.5666403985      -15.2776757466      -16.4068846635  SOLV      1969            0.0000000000
      6022      1981  TIP3      OH2           -39.2951503985      -12.5361357466      -13.7655946635  SOLV      1970            0.0000000000
      6023      1981  TIP3      H1            -39.0818003985      -13.3059757466      -13.2382946635  SOLV      1970            0.0000000000
      6024      1981  TIP3      H2            -38.5573903985      -12.4464657466      -14.3688346635  SOLV      1970            0.0000000000
      6025      1982  TIP3      OH2           -29.0900503985       -4.3792457466      -12.8986246635  SOLV      1971            0.0000000000
      6026      1982  TIP3      H1            -28.4704103985       -5.0557757466      -13.1717046635  SOLV      1971            0.0000000000
      6027      1982  TIP3      H2            -29.2983103985       -4.5971657466      -11.9901346635  SOLV      1971            0.0000000000
      6028      1983  TIP3      OH2           -31.5181803985       -9.9903157466      -11.0060746635  SOLV      1972            0.0000000000
      6029      1983  TIP3      H1            -31.2143903985      -10.6761757466      -11.6006646635  SOLV      1972            0.0000000000
      6030      1983  TIP3      H2            -30.7967803985       -9.8714457466      -10.3882746635  SOLV      1972            0.0000000000
      6031      1984  TIP3      OH2           -22.8552003985      -18.3887857466      -10.1454546635  SOLV      1973            0.0000000000
      6032      1984  TIP3      H1            -22.8059803985      -17.7786657466       -9.4095446635  SOLV      1973            0.0000000000
      6033      1984  TIP3      H2            -22.4296903985      -17.9276957466      -10.8683446635  SOLV      1973            0.0000000000
      6034      1985  TIP3      OH2           -28.3774803985      -15.5960757466      -10.6785946635  SOLV      1974            0.0000000000
      6035      1985  TIP3      H1            -28.2348903985      -16.5423757466      -10.6584346635  SOLV      1974            0.0000000000
      6036      1985  TIP3      H2            -28.4835803985      -15.3890957466      -11.6071046635  SOLV      1974            0.0000000000
      6037      1986  TIP3      OH2           -35.2226503985      -17.4944357466      -13.4061146635  SOLV      1975            0.0000000000
      6038      1986  TIP3      H1            -35.1795403985      -16.6345857466      -13.8244846635  SOLV      1975            0.0000000000
      6039      1986  TIP3      H2            -35.6802403985      -18.0469657466      -14.0397946635  SOLV      1975            0.0000000000
      6040      1987  TIP3      OH2           -27.5003803985      -17.3638757466      -15.0052846635  SOLV      1976            0.0000000000
      6041      1987  TIP3      H1            -26.8539503985      -17.6925557466      -14.3805246635  SOLV      1976            0.0000000000
      6042      1987  TIP3      H2            -26.9904403985      -16.8459757466      -15.6281446635  SOLV      1976            0.0000000000
      6043      1988  TIP3      OH2           -38.6025003985      -15.0978557466      -12.6439746635  SOLV      1977            0.0000000000
      6044      1988  TIP3      H1            -37.9488403985      -15.6476857466      -12.2119646635  SOLV      1977            0.0000000000
      6045      1988  TIP3      H2            -38.5785703985      -15.3719557466      -13.5607746635  SOLV      1977            0.0000000000
      6046      1989  TIP3      OH2           -33.4460503985      -13.5477257466      -13.4288246635  SOLV      1978            0.0000000000
      6047      1989  TIP3      H1            -32.8299503985      -14.0741857466      -12.9194246635  SOLV      1978            0.0000000000
      6048      1989  TIP3      H2            -34.0321703985      -14.1878557466      -13.8324646635  SOLV      1978            0.0000000000
      6049      1990  TIP3      OH2           -22.4637403985      -16.9108657466       -7.9094746635  SOLV      1979            0.0000000000
      6050      1990  TIP3      H1            -23.1522803985      -16.2527957466       -8.0048146635  SOLV      1979            0.0000000000
      6051      1990  TIP3      H2            -22.4482803985      -17.1080757466       -6.9729346635  SOLV      1979            0.0000000000
      6052      1991  TIP3      OH2           -36.4124603985      -18.5765957466       -9.3320346635  SOLV      1980            0.0000000000
      6053      1991  TIP3      H1            -36.6312903985      -18.0465357466      -10.0984346635  SOLV      1980            0.0000000000
      6054      1991  TIP3      H2            -37.0803703985      -18.3500457466       -8.6848946635  SOLV      1980            0.0000000000
      6055      1992  TIP3      OH2           -29.0434803985       -9.0764857466      -15.7881246635  SOLV      1981            0.0000000000
      6056      1992  TIP3      H1            -29.3389703985       -9.3992557466      -16.6394346635  SOLV      1981            0.0000000000
      6057      1992  TIP3      H2            -29.3677003985       -8.1768157466      -15.7468646635  SOLV      1981            0.0000000000
      6058      1993  TIP3      OH2           -33.8433203985      -10.9010257466       -9.0446646635  SOLV      1982            0.0000000000
      6059      1993  TIP3      H1            -34.5834103985      -10.3028757466       -8.9411446635  SOLV      1982            0.0000000000
      6060      1993  TIP3      H2            -33.1293703985      -10.3470657466       -9.3603046635  SOLV      1982            0.0000000000
      6061      1994  TIP3      OH2           -25.7365403985      -18.0729457466      -13.0246946635  SOLV      1983            0.0000000000
      6062      1994  TIP3      H1            -25.9517403985      -18.8386057466      -12.4920946635  SOLV      1983            0.0000000000
      6063      1994  TIP3      H2            -25.0808003985      -17.6004857466      -12.5118446635  SOLV      1983            0.0000000000
      6064      1995  TIP3      OH2           -36.8187303985      -16.6844157466      -11.3798146635  SOLV      1984            0.0000000000
      6065      1995  TIP3      H1            -36.2051003985      -16.0516557466      -11.0065746635  SOLV      1984            0.0000000000
      6066      1995  TIP3      H2            -36.3066603985      -17.1569157466      -12.0361246635  SOLV      1984            0.0000000000
      6067      1996  TIP3      OH2           -35.4358903985       -8.9367257466       -8.2575146635  SOLV      1985            0.0000000000
      6068      1996  TIP3      H1            -35.4411303985       -8.0573757466       -8.6355846635  SOLV      1985            0.0000000000
      6069      1996  TIP3      H2            -36.2894803985       -9.0203157466       -7.8325246635  SOLV      1985            0.0000000000
      6070      1997  TIP3      OH2           -39.3148003985       -9.2659357466      -17.4755846635  SOLV      1986            0.0000000000
      6071      1997  TIP3      H1            -39.5867103985       -9.0368357466      -18.3642946635  SOLV      1986            0.0000000000
      6072      1997  TIP3      H2            -39.2692303985       -8.4280557466      -17.0150546635  SOLV      1986            0.0000000000
      6073      1998  TIP3      OH2           -25.6898303985       -7.6443457466      -10.7627346635  SOLV      1987            0.0000000000
      6074      1998  TIP3      H1            -26.6314603985       -7.5859557466      -10.6010446635  SOLV      1987            0.0000000000
      6075      1998  TIP3      H2            -25.4132203985       -6.7382957466      -10.8997646635  SOLV      1987            0.0000000000
      6076      1999  TIP3      OH2           -25.3891303985      -19.3578157466       -9.3453446635  SOLV      1988            0.0000000000
      6077      1999  TIP3      H1            -26.1252103985      -18.7471057466       -9.3832146635  SOLV      1988            0.0000000000
      6078      1999  TIP3      H2            -24.7057303985      -18.9429157466       -9.8717046635  SOLV      1988            0.0000000000
      6079      2000  TIP3      OH2           -32.3859903985      -21.2710857466      -11.8795446635  SOLV      1989            0.0000000000
      6080      2000  TIP3      H1            -32.5035703985      -22.2194857466      -11.9337146635  SOLV      1989            0.0000000000
      6081      2000  TIP3      H2            -33.2409803985      -20.9384757466      -11.6064346635  SOLV      1989            0.0000000000
      6082      2001  TIP3      OH2           -27.4377103985       -5.8629957466      -14.1375746635  SOLV      1990            0.0000000000
      6083      2001  TIP3      H1            -27.0124803985       -6.5702057466      -14.6226146635  SOLV      1990            0.0000000000
      6084      2001  TIP3      H2            -27.1207103985       -5.0617257466      -14.5543546635  SOLV      1990            0.0000000000
      6085      2002  TIP3      OH2           -26.2780603985       -7.9621457466      -15.6289146635  SOLV      1991            0.0000000000
      6086      2002  TIP3      H1            -26.5355803985       -8.6521357466      -16.2403246635  SOLV      1991            0.0000000000
      6087      2002  TIP3      H2            -26.2069803985       -8.4050257466      -14.7833246635  SOLV      1991            0.0000000000
      6088      2003  TIP3      OH2           -24.5920403985       -9.3954757466       -7.1515646635  SOLV      1992            0.0000000000
      6089      2003  TIP3      H1            -24.4524103985       -9.9872257466       -7.8908646635  SOLV      1992            0.0000000000
      6090      2003  TIP3      H2            -24.4247603985       -8.5228857466       -7.5076846635  SOLV      1992            0.0000000000
      6091      2004  TIP3      OH2           -30.1195003985      -12.4335257466      -17.3789646635  SOLV      1993            0.0000000000
      6092      2004  TIP3      H1            -30.8309503985      -11.8985557466      -17.7309146635  SOLV      1993            0.0000000000
      6093      2004  TIP3      H2            -29.4285403985      -12.3783157466      -18.0390746635  SOLV      1993            0.0000000000
      6094      2005  TIP3      OH2           -30.0655803985      -13.9760957466      -20.3404646635  SOLV      1994            0.0000000000
      6095      2005  TIP3      H1            -29.3645903985      -13.9534057466      -19.6890646635  SOLV      1994            0.0000000000
      6096      2005  TIP3      H2            -29.7632903985      -14.6041257466      -20.9965346635  SOLV      1994            0.0000000000
      6097      2006  TIP3      OH2           -22.7501103985      -13.0556757466       -9.0855246635  SOLV      1995            0.0000000000
      6098      2006  TIP3      H1            -23.4027003985      -12.3611157466       -8.9964346635  SOLV      1995            0.0000000000
      6099      2006  TIP3      H2            -22.2850803985      -12.8455857466       -9.8953646635  SOLV      1995            0.0000000000
      6100      2007  TIP3      OH2           -26.7137303985      -12.2241957466      -16.4273746635  SOLV      1996            0.0000000000
      6101      2007  TIP3      H1            -27.4456303985      -11.9958257466      -15.8543146635  SOLV      1996            0.0000000000
      6102      2007  TIP3      H2            -26.2665103985      -12.9379257466      -15.9726246635  SOLV      1996            0.0000000000
      6103      2008  TIP3      OH2           -26.8163803985      -14.0499357466       -7.3596746635  SOLV      1997            0.0000000000
      6104      2008  TIP3      H1            -26.7364703985      -13.2864957466       -6.7878246635  SOLV      1997            0.0000000000
      6105      2008  TIP3      H2            -27.4176103985      -13.7706957466       -8.0501646635  SOLV      1997            0.0000000000
      6106      2009  TIP3      OH2           -35.0683603985      -11.5935757466      -14.5448746635  SOLV      1998            0.0000000000
      6107      2009  TIP3      H1            -35.3988403985      -11.9642357466      -15.3631746635  SOLV      1998            0.0000000000
      6108      2009  TIP3      H2            -34.4799503985      -12.2641757466      -14.1980446635  SOLV      1998            0.0000000000
      6109      2010  TIP3      OH2           -33.7016103985       -8.1655157466      -11.8636546635  SOLV      1999            0.0000000000
      6110      2010  TIP3      H1            -33.7964803985       -8.7442057466      -12.6201946635  SOLV      1999            0.0000000000
      6111      2010  TIP3      H2            -32.9722503985       -8.5369457466      -11.3673746635  SOLV      1999            0.0000000000
      6112      2011  TIP3      OH2           -34.7018103985      -12.8250157466      -10.9113746635  SOLV      2000            0.0000000000
      6113      2011  TIP3      H1            -34.1365603985      -12.7035957466      -11.6742546635  SOLV      2000            0.0000000000
      6114      2011  TIP3      H2            -34.3829203985      -12.1875157466      -10.2725246635  SOLV      2000            0.0000000000
      6115      2012  TIP3      OH2           -28.3925903985       -7.3218257466      -10.1773246635  SOLV      2001            0.0000000000
      6116      2012  TIP3      H1            -28.6329303985       -6.6595157466       -9.5294046635  SOLV      2001            0.0000000000
      6117      2012  TIP3      H2            -28.5907703985       -8.1563057466       -9.7523646635  SOLV      2001            0.0000000000
      6118      2013  TIP3      OH2           -33.8217403985       -8.4257457466       -6.1941846635  SOLV      2002            0.0000000000
      6119      2013  TIP3      H1            -34.1329903985       -7.6434257466       -5.7388646635  SOLV      2002            0.0000000000
      6120      2013  TIP3      H2            -34.4717203985       -8.5788357466       -6.8799846635  SOLV      2002            0.0000000000
      6121      2014  TIP3      OH2           -27.8427803985      -13.0619057466      -18.7422546635  SOLV      2003            0.0000000000
      6122      2014  TIP3      H1            -27.2632303985      -12.9118757466      -17.9953646635  SOLV      2003            0.0000000000
      6123      2014  TIP3      H2            -27.4287803985      -12.5911657466      -19.4656146635  SOLV      2003            0.0000000000
      6124      2015  TIP3      OH2           -36.9017503985      -12.2276357466       -6.9656146635  SOLV      2004            0.0000000000
      6125      2015  TIP3      H1            -36.8314303985      -11.5769557466       -6.2671146635  SOLV      2004            0.0000000000
      6126      2015  TIP3      H2            -37.7925303985      -12.1248857466       -7.3005246635  SOLV      2004            0.0000000000
      6127      2016  TIP3      OH2           -30.1162903985       -6.3250557466      -15.3069446635  SOLV      2005            0.0000000000
      6128      2016  TIP3      H1            -29.6425303985       -6.0294257466      -14.5295246635  SOLV      2005            0.0000000000
      6129      2016  TIP3      H2            -30.6793603985       -5.5868957466      -15.5399846635  SOLV      2005            0.0000000000
      6130      2017  TIP3      OH2           -35.5821503985       -6.3542457466       -5.4308046635  SOLV      2006            0.0000000000
      6131      2017  TIP3      H1            -35.5746203985       -6.4902757466       -6.3782546635  SOLV      2006            0.0000000000
      6132      2017  TIP3      H2            -36.4981103985       -6.4714357466       -5.1788046635  SOLV      2006            0.0000000000
      6133      2018  TIP3      OH2           -24.1439403985      -21.3118657466      -18.9292846635  SOLV      2007            0.0000000000
      6134      2018  TIP3      H1            -25.0438703985      -21.1729657466      -18.6342246635  SOLV      2007            0.0000000000
      6135      2018  TIP3      H2            -23.8921003985      -20.4804057466      -19.3311146635  SOLV      2007            0.0000000000
      6136      2019  TIP3      OH2           -36.0780903985      -12.5241457466      -16.9555946635  SOLV      2008            0.0000000000
      6137      2019  TIP3      H1            -36.3699603985      -11.7559757466      -17.4464646635  SOLV      2008            0.0000000000
      6138      2019  TIP3      H2            -36.7525703985      -13.1835257466      -17.1184546635  SOLV      2008            0.0000000000
      6139      2020  TIP3      OH2           -22.9548003985       -6.9456257466      -20.5528946635  SOLV      2009            0.0000000000
      6140      2020  TIP3      H1            -22.8814503985       -6.0066057466      -20.3823646635  SOLV      2009            0.0000000000
      6141      2020  TIP3      H2            -22.0492903985       -7.2507657466      -20.6091646635  SOLV      2009            0.0000000000
      6142      2021  TIP3      OH2           -39.9850803985      -10.1612257466       -8.1406146635  SOLV      2010            0.0000000000
      6143      2021  TIP3      H1            -40.4862403985      -10.1892857466       -8.9556446635  SOLV      2010            0.0000000000
      6144      2021  TIP3      H2            -39.9797103985      -11.0669057466       -7.8308846635  SOLV      2010            0.0000000000
      6145      2022  TIP3      OH2           -40.2348103985       -7.3808457466      -11.2565946635  SOLV      2011            0.0000000000
      6146      2022  TIP3      H1            -39.2887503985       -7.5251457466      -11.2756446635  SOLV      2011            0.0000000000
      6147      2022  TIP3      H2            -40.3471803985       -6.5965657466      -10.7194746635  SOLV      2011            0.0000000000
      6148      2023  TIP3      OH2           -22.0369603985       -6.7148757466       -5.5742246635  SOLV      2012            0.0000000000
      6149      2023  TIP3      H1            -22.0862803985       -7.6700657466       -5.6114646635  SOLV      2012            0.0000000000
      6150      2023  TIP3      H2            -22.8637303985       -6.4473457466       -5.1728446635  SOLV      2012            0.0000000000
      6151      2024  TIP3      OH2           -31.0585603985       -7.1409557466       -6.6980846635  SOLV      2013            0.0000000000
      6152      2024  TIP3      H1            -30.9711003985       -6.3144957466       -6.2231746635  SOLV      2013            0.0000000000
      6153      2024  TIP3      H2            -31.9220503985       -7.4705757466       -6.4491546635  SOLV      2013            0.0000000000
      6154      2025  TIP3      OH2           -30.6439803985       -3.3685857466      -16.8920246635  SOLV      2014            0.0000000000
      6155      2025  TIP3      H1            -30.7193803985       -3.4898657466      -17.8385046635  SOLV      2014            0.0000000000
      6156      2025  TIP3      H2            -30.6111103985       -2.4193157466      -16.7735646635  SOLV      2014            0.0000000000
      6157      2026  TIP3      OH2           -36.9906003985       -4.5798857466      -15.1111246635  SOLV      2015            0.0000000000
      6158      2026  TIP3      H1            -36.8385603985       -4.9278457466      -14.2324746635  SOLV      2015            0.0000000000
      6159      2026  TIP3      H2            -37.8415603985       -4.9361557466      -15.3664046635  SOLV      2015            0.0000000000
      6160      2027  TIP3      OH2           -27.5423803985       -4.2145657466      -19.8897846635  SOLV      2016            0.0000000000
      6161      2027  TIP3      H1            -27.1675403985       -4.9589557466      -20.3605246635  SOLV      2016            0.0000000000
      6162      2027  TIP3      H2            -27.5380103985       -4.4845057466      -18.9714546635  SOLV      2016            0.0000000000
      6163      2028  TIP3      OH2           -27.8735703985       -4.2888557466      -17.1405646635  SOLV      2017            0.0000000000
      6164      2028  TIP3      H1            -28.8085903985       -4.1886657466      -16.9618646635  SOLV      2017            0.0000000000
      6165      2028  TIP3      H2            -27.5933803985       -4.9982557466      -16.5622446635  SOLV      2017            0.0000000000
      6166      2029  TIP3      OH2           -24.8849803985      -15.2216257466       -5.0940046635  SOLV      2018            0.0000000000
      6167      2029  TIP3      H1            -25.2923003985      -14.7410657466       -5.8146746635  SOLV      2018            0.0000000000
      6168      2029  TIP3      H2            -24.8444103985      -16.1270257466       -5.4019246635  SOLV      2018            0.0000000000
      6169      2030  TIP3      OH2           -37.7360303985       -8.8376857466       -7.0973346635  SOLV      2019            0.0000000000
      6170      2030  TIP3      H1            -37.5199003985       -9.1991257466       -6.2377546635  SOLV      2019            0.0000000000
      6171      2030  TIP3      H2            -38.5915603985       -9.2123057466       -7.3069846635  SOLV      2019            0.0000000000
      6172      2031  TIP3      OH2           -35.1172303985      -20.3676357466      -11.1019146635  SOLV      2020            0.0000000000
      6173      2031  TIP3      H1            -35.9788603985      -20.4548157466      -11.5096246635  SOLV      2020            0.0000000000
      6174      2031  TIP3      H2            -35.1396603985      -19.5116257466      -10.6741546635  SOLV      2020            0.0000000000
      6175      2032  TIP3      OH2           -30.4544503985      -20.6455957466       -7.7272146635  SOLV      2021            0.0000000000
      6176      2032  TIP3      H1            -30.0341403985      -21.0608857466       -6.9741546635  SOLV      2021            0.0000000000
      6177      2032  TIP3      H2            -31.3874903985      -20.8242657466       -7.6100146635  SOLV      2021            0.0000000000
      6178      2033  TIP3      OH2           -27.1279603985      -16.8900757466       -6.8737646635  SOLV      2022            0.0000000000
      6179      2033  TIP3      H1            -27.6420103985      -17.0158557466       -6.0761646635  SOLV      2022            0.0000000000
      6180      2033  TIP3      H2            -27.2834903985      -15.9777657466       -7.1181446635  SOLV      2022            0.0000000000
      6181      2034  TIP3      OH2           -26.3654703985      -12.0290757466      -21.1124646635  SOLV      2023            0.0000000000
      6182      2034  TIP3      H1            -26.3233903985      -12.2516857466      -22.0424646635  SOLV      2023            0.0000000000
      6183      2034  TIP3      H2            -25.5162603985      -11.6303657466      -20.9224746635  SOLV      2023            0.0000000000
      6184      2035  TIP3      OH2           -35.0262203985      -15.4021857466      -10.0068946635  SOLV      2024            0.0000000000
      6185      2035  TIP3      H1            -35.6680103985      -15.4424557466       -9.2978846635  SOLV      2024            0.0000000000
      6186      2035  TIP3      H2            -34.9890203985      -14.4757157466      -10.2445946635  SOLV      2024            0.0000000000
      6187      2036  TIP3      OH2           -35.0293103985      -15.1811757466      -15.0948946635  SOLV      2025            0.0000000000
      6188      2036  TIP3      H1            -35.9220203985      -15.5215657466      -15.1535146635  SOLV      2025            0.0000000000
      6189      2036  TIP3      H2            -34.5786503985      -15.5580857466      -15.8505746635  SOLV      2025            0.0000000000
      6190      2037  TIP3      OH2           -29.4937603985      -14.7651457466      -16.2778146635  SOLV      2026            0.0000000000
      6191      2037  TIP3      H1            -29.9027303985      -13.9502857466      -16.5693346635  SOLV      2026            0.0000000000
      6192      2037  TIP3      H2            -28.7731403985      -14.9051357466      -16.8921046635  SOLV      2026            0.0000000000
      6193      2038  TIP3      OH2           -30.3916003985      -14.5895057466       -4.7897446635  SOLV      2027            0.0000000000
      6194      2038  TIP3      H1            -30.9542203985      -15.2943457466       -4.4689646635  SOLV      2027            0.0000000000
      6195      2038  TIP3      H2            -29.5652603985      -14.7103157466       -4.3219846635  SOLV      2027            0.0000000000
      6196      2039  TIP3      OH2           -28.4889903985      -15.3191057466      -13.4638446635  SOLV      2028            0.0000000000
      6197      2039  TIP3      H1            -28.6845403985      -14.7134257466      -14.1787846635  SOLV      2028            0.0000000000
      6198      2039  TIP3      H2            -28.3077303985      -16.1525857466      -13.8982146635  SOLV      2028            0.0000000000
      6199      2040  TIP3      OH2           -37.2761703985      -15.0818357466       -8.1396946635  SOLV      2029            0.0000000000
      6200      2040  TIP3      H1            -37.3142303985      -14.6816757466       -7.2709846635  SOLV      2029            0.0000000000
      6201      2040  TIP3      H2            -37.7670603985      -15.8985957466       -8.0494046635  SOLV      2029            0.0000000000
      6202      2041  TIP3      OH2           -29.2250703985      -13.6809757466       -8.7926046635  SOLV      2030            0.0000000000
      6203      2041  TIP3      H1            -28.9015903985      -14.3120057466       -9.4355546635  SOLV      2030            0.0000000000
      6204      2041  TIP3      H2            -29.6651403985      -14.2157557466       -8.1318646635  SOLV      2030            0.0000000000
      6205      2042  TIP3      OH2           -32.4477803985      -17.7534257466      -14.0084846635  SOLV      2031            0.0000000000
      6206      2042  TIP3      H1            -33.3586703985      -17.6967457466      -13.7198846635  SOLV      2031            0.0000000000
      6207      2042  TIP3      H2            -31.9424903985      -17.8138757466      -13.1977646635  SOLV      2031            0.0000000000
      6208      2043  TIP3      OH2           -37.6194403985      -16.1247957466      -15.1817246635  SOLV      2032            0.0000000000
      6209      2043  TIP3      H1            -38.5086403985      -16.0252457466      -15.5217646635  SOLV      2032            0.0000000000
      6210      2043  TIP3      H2            -37.3229503985      -16.9664957466      -15.5279346635  SOLV      2032            0.0000000000
      6211      2044  TIP3      OH2           -33.9662603985      -16.1245357466      -17.5252646635  SOLV      2033            0.0000000000
      6212      2044  TIP3      H1            -33.0347103985      -15.9955357466      -17.3469546635  SOLV      2033            0.0000000000
      6213      2044  TIP3      H2            -34.1812303985      -15.4551057466      -18.1747946635  SOLV      2033            0.0000000000
      6214      2045  TIP3      OH2           -28.0425903985      -18.5187957466      -10.7443046635  SOLV      2034            0.0000000000
      6215      2045  TIP3      H1            -28.7194303985      -18.3874857466      -10.0803346635  SOLV      2034            0.0000000000
      6216      2045  TIP3      H2            -28.5281003985      -18.6738457466      -11.5545346635  SOLV      2034            0.0000000000
      6217      2046  TIP3      OH2           -24.7550803985       -2.8472557466       -4.4675446635  SOLV      2035            0.0000000000
      6218      2046  TIP3      H1            -24.5552103985       -2.4230657466       -5.3020146635  SOLV      2035            0.0000000000
      6219      2046  TIP3      H2            -24.0997103985       -2.5034357466       -3.8605046635  SOLV      2035            0.0000000000
      6220      2047  TIP3      OH2           -37.1571003985      -10.3731257466       -4.8594946635  SOLV      2036            0.0000000000
      6221      2047  TIP3      H1            -36.4248603985      -10.1185357466       -4.2980446635  SOLV      2036            0.0000000000
      6222      2047  TIP3      H2            -37.9372303985      -10.1685857466       -4.3439546635  SOLV      2036            0.0000000000
      6223      2048  TIP3      OH2           -31.1278103985      -14.9661257466      -12.1215246635  SOLV      2037            0.0000000000
      6224      2048  TIP3      H1            -30.5634703985      -15.5124657466      -12.6685646635  SOLV      2037            0.0000000000
      6225      2048  TIP3      H2            -31.2754703985      -15.4879357466      -11.3327646635  SOLV      2037            0.0000000000
      6226      2049  TIP3      OH2           -36.1258403985      -18.8295157466      -15.7030446635  SOLV      2038            0.0000000000
      6227      2049  TIP3      H1            -36.4428903985      -19.7319857466      -15.7385046635  SOLV      2038            0.0000000000
      6228      2049  TIP3      H2            -35.3444303985      -18.8277757466      -16.2558846635  SOLV      2038            0.0000000000
      6229      2050  TIP3      OH2           -32.5012203985      -16.5775157466       -9.7074846635  SOLV      2039            0.0000000000
      6230      2050  TIP3      H1            -33.3366903985      -16.1235657466       -9.5972446635  SOLV      2039            0.0000000000
      6231      2050  TIP3      H2            -31.9771603985      -16.3016657466       -8.9554946635  SOLV      2039            0.0000000000
      6232      2051  TIP3      OH2           -31.9569603985      -10.3647457466      -18.0228446635  SOLV      2040            0.0000000000
      6233      2051  TIP3      H1            -32.7018603985      -10.8722157466      -18.3450546635  SOLV      2040            0.0000000000
      6234      2051  TIP3      H2            -32.0912403985      -10.3159457466      -17.0763646635  SOLV      2040            0.0000000000
      6235      2052  TIP3      OH2           -24.8070703985      -11.2319257466       -9.2360846635  SOLV      2041            0.0000000000
      6236      2052  TIP3      H1            -24.1651903985      -10.7752957466       -9.7798646635  SOLV      2041            0.0000000000
      6237      2052  TIP3      H2            -25.6373803985      -11.1186857466       -9.6986746635  SOLV      2041            0.0000000000
      6238      2053  TIP3      OH2           -28.0592803985      -17.5507557466      -19.8235846635  SOLV      2042            0.0000000000
      6239      2053  TIP3      H1            -28.9978603985      -17.4391957466      -19.9747046635  SOLV      2042            0.0000000000
      6240      2053  TIP3      H2            -27.7620703985      -16.6940657466      -19.5170146635  SOLV      2042            0.0000000000
      6241      2054  TIP3      OH2           -30.4377503985      -10.1804157466       -6.7859346635  SOLV      2043            0.0000000000
      6242      2054  TIP3      H1            -30.7831403985      -10.5621757466       -5.9789746635  SOLV      2043            0.0000000000
      6243      2054  TIP3      H2            -30.6377403985       -9.2470557466       -6.7146446635  SOLV      2043            0.0000000000
      6244      2055  TIP3      OH2           -27.3409303985      -15.6834857466      -18.1628446635  SOLV      2044            0.0000000000
      6245      2055  TIP3      H1            -26.4490303985      -15.8209857466      -17.8437246635  SOLV      2044            0.0000000000
      6246      2055  TIP3      H2            -27.2845703985      -14.8928757466      -18.6994946635  SOLV      2044            0.0000000000
      6247      2056  TIP3      OH2           -36.8321303985      -11.0697457466      -12.2530546635  SOLV      2045            0.0000000000
      6248      2056  TIP3      H1            -36.0874103985      -11.0721757466      -12.8544046635  SOLV      2045            0.0000000000
      6249      2056  TIP3      H2            -36.7544703985      -11.8933657466      -11.7715446635  SOLV      2045            0.0000000000
      6250      2057  TIP3      OH2           -29.8315503985       -8.9063157466      -18.9973846635  SOLV      2046            0.0000000000
      6251      2057  TIP3      H1            -30.1267103985       -8.0795257466      -18.6159046635  SOLV      2046            0.0000000000
      6252      2057  TIP3      H2            -30.5345503985       -9.5256257466      -18.8012446635  SOLV      2046            0.0000000000
      6253      2058  TIP3      OH2           -39.8241603985      -12.6090557466       -6.9382046635  SOLV      2047            0.0000000000
      6254      2058  TIP3      H1            -39.6013003985      -13.0270957466       -6.1064546635  SOLV      2047            0.0000000000
      6255      2058  TIP3      H2            -40.4261503985      -13.2215557466       -7.3609246635  SOLV      2047            0.0000000000
      6256      2059  TIP3      OH2           -32.8076703985      -13.0920657466       -4.7252346635  SOLV      2048            0.0000000000
      6257      2059  TIP3      H1            -33.1035903985      -13.2577657466       -5.6203246635  SOLV      2048            0.0000000000
      6258      2059  TIP3      H2            -31.8761503985      -13.3120357466       -4.7358446635  SOLV      2048            0.0000000000
      6259      2060  TIP3      OH2           -28.1873903985       -7.7188657466       -6.8354346635  SOLV      2049            0.0000000000
      6260      2060  TIP3      H1            -29.0879603985       -7.5356057466       -7.1030446635  SOLV      2049            0.0000000000
      6261      2060  TIP3      H2            -28.1532803985       -7.4599357466       -5.9145546635  SOLV      2049            0.0000000000
      6262      2061  TIP3      OH2           -22.4560603985      -15.4740757466      -18.4681746635  SOLV      2050            0.0000000000
      6263      2061  TIP3      H1            -23.0104303985      -15.8702757466      -19.1404246635  SOLV      2050            0.0000000000
      6264      2061  TIP3      H2            -22.3557003985      -14.5635557466      -18.7458446635  SOLV      2050            0.0000000000
      6265      2062  TIP3      OH2           -22.4928603985       -9.6739057466       -5.6310246635  SOLV      2051            0.0000000000
      6266      2062  TIP3      H1            -23.3440103985       -9.4355257466       -5.9983846635  SOLV      2051            0.0000000000
      6267      2062  TIP3      H2            -21.9025203985       -9.6905857466       -6.3843146635  SOLV      2051            0.0000000000
      6268      2063  TIP3      OH2           -24.1608903985       -6.6880357466      -18.0029646635  SOLV      2052            0.0000000000
      6269      2063  TIP3      H1            -24.5337803985       -7.5136557466      -17.6939046635  SOLV      2052            0.0000000000
      6270      2063  TIP3      H2            -23.8835403985       -6.8710957466      -18.9006246635  SOLV      2052            0.0000000000
      6271      2064  TIP3      OH2           -27.0005003985      -11.8800857466      -10.9817746635  SOLV      2053            0.0000000000
      6272      2064  TIP3      H1            -27.9288103985      -12.1118957466      -11.0088446635  SOLV      2053            0.0000000000
      6273      2064  TIP3      H2            -26.5493903985      -12.6571057466      -11.3118946635  SOLV      2053            0.0000000000
      6274      2065  TIP3      OH2           -34.4571903985       -7.5519257466      -14.8489046635  SOLV      2054            0.0000000000
      6275      2065  TIP3      H1            -33.9299703985       -6.7784857466      -15.0490246635  SOLV      2054            0.0000000000
      6276      2065  TIP3      H2            -35.3373403985       -7.3270057466      -15.1505046635  SOLV      2054            0.0000000000
      6277      2066  TIP3      OH2           -33.0299603985       -9.8889357466      -15.2724746635  SOLV      2055            0.0000000000
      6278      2066  TIP3      H1            -33.2709603985       -8.9634957466      -15.2309446635  SOLV      2055            0.0000000000
      6279      2066  TIP3      H2            -33.7706003985      -10.3478057466      -14.8760846635  SOLV      2055            0.0000000000
      6280      2067  TIP3      OH2           -32.5153003985       -5.7395757466       -8.9573646635  SOLV      2056            0.0000000000
      6281      2067  TIP3      H1            -32.1528303985       -4.8850157466       -9.1909246635  SOLV      2056            0.0000000000
      6282      2067  TIP3      H2            -31.9837803985       -6.0314157466       -8.2167346635  SOLV      2056            0.0000000000
      6283      2068  TIP3      OH2           -34.3468803985       -4.8671757466      -15.7272546635  SOLV      2057            0.0000000000
      6284      2068  TIP3      H1            -35.2968303985       -4.7614357466      -15.6759246635  SOLV      2057            0.0000000000
      6285      2068  TIP3      H2            -33.9950703985       -4.0464357466      -15.3825046635  SOLV      2057            0.0000000000
      6286      2069  TIP3      OH2           -28.9712203985       -9.6405057466       -9.2568046635  SOLV      2058            0.0000000000
      6287      2069  TIP3      H1            -29.3970903985       -9.8683357466       -8.4304046635  SOLV      2058            0.0000000000
      6288      2069  TIP3      H2            -28.3906403985      -10.3793257466       -9.4392746635  SOLV      2058            0.0000000000
      6289      2070  TIP3      OH2           -26.7683303985       -8.7114557466      -20.1829046635  SOLV      2059            0.0000000000
      6290      2070  TIP3      H1            -26.4150203985       -9.0914757466      -19.3785546635  SOLV      2059            0.0000000000
      6291      2070  TIP3      H2            -27.7169803985       -8.8049757466      -20.0959746635  SOLV      2059            0.0000000000
      6292      2071  TIP3      OH2           -26.3128003985       -5.0885557466       -6.7873246635  SOLV      2060            0.0000000000
      6293      2071  TIP3      H1            -26.9144803985       -5.6442657466       -7.2826946635  SOLV      2060            0.0000000000
      6294      2071  TIP3      H2            -26.0314303985       -4.4215757466       -7.4135846635  SOLV      2060            0.0000000000
      6295      2072  TIP3      OH2           -22.2648903985       -4.2322057466      -19.9818846635  SOLV      2061            0.0000000000
      6296      2072  TIP3      H1            -21.5211003985       -3.6461557466      -20.1217246635  SOLV      2061            0.0000000000
      6297      2072  TIP3      H2            -22.9590803985       -3.6636257466      -19.6486446635  SOLV      2061            0.0000000000
      6298      2073  TIP3      OH2           -38.1902103985      -17.8557857466       -7.3800646635  SOLV      2062            0.0000000000
      6299      2073  TIP3      H1            -39.0829803985      -17.5172457466       -7.4476646635  SOLV      2062            0.0000000000
      6300      2073  TIP3      H2            -38.2889303985      -18.7111757466       -6.9619846635  SOLV      2062            0.0000000000
      6301      2074  TIP3      OH2           -25.9024003985      -10.0392557466      -17.9561146635  SOLV      2063            0.0000000000
      6302      2074  TIP3      H1            -26.1796403985      -10.7673257466      -17.4000046635  SOLV      2063            0.0000000000
      6303      2074  TIP3      H2            -24.9751003985       -9.9200557466      -17.7508546635  SOLV      2063            0.0000000000
      6304      2075  TIP3      OH2           -38.5390103985       -6.0513457466       -8.9451246635  SOLV      2064            0.0000000000
      6305      2075  TIP3      H1            -38.3219803985       -6.9831057466       -8.9761546635  SOLV      2064            0.0000000000
      6306      2075  TIP3      H2            -38.2926603985       -5.7768457466       -8.0618446635  SOLV      2064            0.0000000000
      6307      2076  TIP3      OH2           -32.6775503985       -7.5998457466      -21.7359046635  SOLV      2065            0.0000000000
      6308      2076  TIP3      H1            -32.4385703985       -8.3480357466      -22.2830146635  SOLV      2065            0.0000000000
      6309      2076  TIP3      H2            -32.9464203985       -7.9876757466      -20.9031246635  SOLV      2065            0.0000000000
      6310      2077  TIP3      OH2           -33.7404903985       -8.0294657466      -19.2796446635  SOLV      2066            0.0000000000
      6311      2077  TIP3      H1            -33.5936903985       -8.5494857466      -18.4895546635  SOLV      2066            0.0000000000
      6312      2077  TIP3      H2            -33.7433203985       -7.1227057466      -18.9730546635  SOLV      2066            0.0000000000
      6313      2078  TIP3      OH2           -37.2873803985      -10.7771357466      -18.7691046635  SOLV      2067            0.0000000000
      6314      2078  TIP3      H1            -37.9734503985      -10.4248857466      -18.2021346635  SOLV      2067            0.0000000000
      6315      2078  TIP3      H2            -36.7645903985      -10.0141757466      -19.0156746635  SOLV      2067            0.0000000000
      6316      2079  TIP3      OH2           -29.4558703985      -18.1147557466       -8.4902046635  SOLV      2068            0.0000000000
      6317      2079  TIP3      H1            -28.7570803985      -18.0408857466       -7.8402346635  SOLV      2068            0.0000000000
      6318      2079  TIP3      H2            -29.8367303985      -18.9792557466       -8.3359146635  SOLV      2068            0.0000000000
      6319      2080  TIP3      OH2           -28.6713803985      -18.4625857466      -17.3929746635  SOLV      2069            0.0000000000
      6320      2080  TIP3      H1            -28.4515503985      -17.9910457466      -18.1964346635  SOLV      2069            0.0000000000
      6321      2080  TIP3      H2            -28.1129803985      -18.0683257466      -16.7229146635  SOLV      2069            0.0000000000
      6322      2081  TIP3      OH2           -31.0027703985       -6.3321057466      -18.5302246635  SOLV      2070            0.0000000000
      6323      2081  TIP3      H1            -31.8191603985       -5.8351357466      -18.4777946635  SOLV      2070            0.0000000000
      6324      2081  TIP3      H2            -30.4731403985       -5.8567557466      -19.1703446635  SOLV      2070            0.0000000000
      6325      2082  TIP3      OH2           -31.4713903985      -16.7347057466      -16.5581346635  SOLV      2071            0.0000000000
      6326      2082  TIP3      H1            -30.6591303985      -16.2303857466      -16.5119646635  SOLV      2071            0.0000000000
      6327      2082  TIP3      H2            -31.7160903985      -16.8797357466      -15.6441746635  SOLV      2071            0.0000000000
      6328      2083  TIP3      OH2           -30.9357503985      -15.7484357466       -7.3734746635  SOLV      2072            0.0000000000
      6329      2083  TIP3      H1            -30.8167203985      -15.1748957466       -6.6164346635  SOLV      2072            0.0000000000
      6330      2083  TIP3      H2            -30.2802903985      -16.4364957466       -7.2586946635  SOLV      2072            0.0000000000
      6331      2084  TIP3      OH2           -30.5877203985      -19.6534057466      -15.6200246635  SOLV      2073            0.0000000000
      6332      2084  TIP3      H1            -30.9343703985      -19.0363457466      -14.9755946635  SOLV      2073            0.0000000000
      6333      2084  TIP3      H2            -29.9290303985      -19.1528357466      -16.1014746635  SOLV      2073            0.0000000000
      6334      2085  TIP3      OH2           -33.6644603985       -5.2883857466      -18.5485346635  SOLV      2074            0.0000000000
      6335      2085  TIP3      H1            -33.5035903985       -4.4886357466      -19.0492746635  SOLV      2074            0.0000000000
      6336      2085  TIP3      H2            -33.8616803985       -4.9817857466      -17.6634746635  SOLV      2074            0.0000000000
      6337      2086  TIP3      OH2           -24.7311703985      -17.8414057466       -6.5385046635  SOLV      2075            0.0000000000
      6338      2086  TIP3      H1            -25.6475903985      -17.5792357466       -6.6261346635  SOLV      2075            0.0000000000
      6339      2086  TIP3      H2            -24.3956703985      -17.8445057466       -7.4349746635  SOLV      2075            0.0000000000
      6340      2087  TIP3      OH2           -26.1290703985      -14.0913057466      -12.4427746635  SOLV      2076            0.0000000000
      6341      2087  TIP3      H1            -26.9266303985      -14.5062857466      -12.7712746635  SOLV      2076            0.0000000000
      6342      2087  TIP3      H2            -25.6839603985      -14.7819357466      -11.9517246635  SOLV      2076            0.0000000000
      6343      2088  TIP3      OH2           -36.6714903985       -8.1632457466      -19.8723246635  SOLV      2077            0.0000000000
      6344      2088  TIP3      H1            -36.0793403985       -7.4637657466      -19.5960846635  SOLV      2077            0.0000000000
      6345      2088  TIP3      H2            -36.2121903985       -8.5962957466      -20.5918646635  SOLV      2077            0.0000000000
      6346      2089  TIP3      OH2           -25.0426103985       -4.8350557466      -10.8204246635  SOLV      2078            0.0000000000
      6347      2089  TIP3      H1            -25.1981803985       -4.1566157466      -11.4774946635  SOLV      2078            0.0000000000
      6348      2089  TIP3      H2            -24.1099703985       -4.7631257466      -10.6173646635  SOLV      2078            0.0000000000
      6349      2090  TIP3      OH2           -38.6170403985       -6.7765757466      -15.9227046635  SOLV      2079            0.0000000000
      6350      2090  TIP3      H1            -39.4491803985       -6.3043057466      -15.8955646635  SOLV      2079            0.0000000000
      6351      2090  TIP3      H2            -38.0712103985       -6.2668157466      -16.5213946635  SOLV      2079            0.0000000000
      6352      2091  TIP3      OH2           -39.3286703985       -4.1642057466       -4.5929046635  SOLV      2080            0.0000000000
      6353      2091  TIP3      H1            -38.7884503985       -4.3808057466       -3.8329846635  SOLV      2080            0.0000000000
      6354      2091  TIP3      H2            -39.8098703985       -4.9696057466       -4.7826546635  SOLV      2080            0.0000000000
      6355      2092  TIP3      OH2           -34.7313303985       -5.2447657466       -2.9724846635  SOLV      2081            0.0000000000
      6356      2092  TIP3      H1            -33.9636103985       -5.7036857466       -2.6315646635  SOLV      2081            0.0000000000
      6357      2092  TIP3      H2            -34.7527103985       -5.4707857466       -3.9023646635  SOLV      2081            0.0000000000
      6358      2093  TIP3      OH2           -30.6393703985       -5.7367057466      -21.5973046635  SOLV      2082            0.0000000000
      6359      2093  TIP3      H1            -31.2832703985       -6.3678457466      -21.2759346635  SOLV      2082            0.0000000000
      6360      2093  TIP3      H2            -29.8775403985       -6.2679057466      -21.8289546635  SOLV      2082            0.0000000000
      6361      2094  TIP3      OH2           -28.1544603985       -6.8646557466       -4.2433346635  SOLV      2083            0.0000000000
      6362      2094  TIP3      H1            -28.5055103985       -7.7213557466       -4.0002946635  SOLV      2083            0.0000000000
      6363      2094  TIP3      H2            -27.4281403985       -6.7219857466       -3.6364346635  SOLV      2083            0.0000000000
      6364      2095  TIP3      OH2           -26.0350803985       -5.9197157466      -21.3635046635  SOLV      2084            0.0000000000
      6365      2095  TIP3      H1            -25.7520403985       -6.7141957466      -20.9108146635  SOLV      2084            0.0000000000
      6366      2095  TIP3      H2            -25.2952903985       -5.6866157466      -21.9243946635  SOLV      2084            0.0000000000
      6367      2096  TIP3      OH2           -39.4217203985      -10.3537957466       -3.6384746635  SOLV      2085            0.0000000000
      6368      2096  TIP3      H1            -39.2776703985      -11.2557257466       -3.9248046635  SOLV      2085            0.0000000000
      6369      2096  TIP3      H2            -40.1939803985      -10.0675857466       -4.1262446635  SOLV      2085            0.0000000000
      6370      2097  TIP3      OH2           -32.7661103985      -10.3839857466       -4.2058346635  SOLV      2086            0.0000000000
      6371      2097  TIP3      H1            -33.0947303985      -10.1131757466       -5.0630946635  SOLV      2086            0.0000000000
      6372      2097  TIP3      H2            -32.6142903985      -11.3250057466       -4.2933346635  SOLV      2086            0.0000000000
      6373      2098  TIP3      OH2           -29.7280103985       -8.9630557466      -21.7702146635  SOLV      2087            0.0000000000
      6374      2098  TIP3      H1            -29.9966003985       -8.7828457466      -20.8693246635  SOLV      2087            0.0000000000
      6375      2098  TIP3      H2            -29.9344503985       -9.8884357466      -21.9016346635  SOLV      2087            0.0000000000
      6376      2099  TIP3      OH2           -27.0315903985      -10.4682557466       -6.8226046635  SOLV      2088            0.0000000000
      6377      2099  TIP3      H1            -26.2861103985       -9.8798857466       -6.9422046635  SOLV      2088            0.0000000000
      6378      2099  TIP3      H2            -27.7889103985       -9.8862857466       -6.7592946635  SOLV      2088            0.0000000000
      6379      2100  TIP3      OH2           -38.5890703985      -13.1534657466       -4.2185446635  SOLV      2089            0.0000000000
      6380      2100  TIP3      H1            -38.1809503985      -14.0108057466       -4.3394846635  SOLV      2089            0.0000000000
      6381      2100  TIP3      H2            -38.8493103985      -13.1393357466       -3.2975146635  SOLV      2089            0.0000000000
      6382      2101  TIP3      OH2           -33.9309703985      -12.0376057466      -19.2002146635  SOLV      2090            0.0000000000
      6383      2101  TIP3      H1            -34.3907703985      -12.5217757466      -18.5143646635  SOLV      2090            0.0000000000
      6384      2101  TIP3      H2            -33.6761003985      -12.7060657466      -19.8361646635  SOLV      2090            0.0000000000
      6385      2102  TIP3      OH2           -34.6420403985      -14.1448957466       -6.8442546635  SOLV      2091            0.0000000000
      6386      2102  TIP3      H1            -35.2604303985      -13.4702357466       -6.5637846635  SOLV      2091            0.0000000000
      6387      2102  TIP3      H2            -34.2979203985      -13.8235057466       -7.6776346635  SOLV      2091            0.0000000000
      6388      2103  TIP3      OH2           -29.6222203985      -11.6733657466       -3.5667746635  SOLV      2092            0.0000000000
      6389      2103  TIP3      H1            -28.6691003985      -11.5894557466       -3.5941746635  SOLV      2092            0.0000000000
      6390      2103  TIP3      H2            -29.7827603985      -12.3851857466       -2.9472846635  SOLV      2092            0.0000000000
      6391      2104  TIP3      OH2           -23.4701003985      -11.4400057466      -21.4920846635  SOLV      2093            0.0000000000
      6392      2104  TIP3      H1            -23.7436203985      -11.8644557466      -22.3052546635  SOLV      2093            0.0000000000
      6393      2104  TIP3      H2            -23.4306903985      -10.5085557466      -21.7090446635  SOLV      2093            0.0000000000
      6394      2105  TIP3      OH2           -34.3026703985      -16.7898157466       -5.7619446635  SOLV      2094            0.0000000000
      6395      2105  TIP3      H1            -34.1525803985      -17.5186857466       -6.3639746635  SOLV      2094            0.0000000000
      6396      2105  TIP3      H2            -34.3004303985      -16.0126457466       -6.3207246635  SOLV      2094            0.0000000000
      6397      2106  TIP3      OH2           -33.8901003985      -18.4202357466       -8.2692046635  SOLV      2095            0.0000000000
      6398      2106  TIP3      H1            -33.3543503985      -17.9685657466       -8.9212746635  SOLV      2095            0.0000000000
      6399      2106  TIP3      H2            -34.7421403985      -18.5282557466       -8.6917946635  SOLV      2095            0.0000000000
      6400      2107  TIP3      OH2           -32.3082603985      -12.9806157466       -8.0296846635  SOLV      2096            0.0000000000
      6401      2107  TIP3      H1            -31.5577803985      -13.1368657466       -8.6029046635  SOLV      2096            0.0000000000
      6402      2107  TIP3      H2            -32.6474303985      -12.1289557466       -8.3051346635  SOLV      2096            0.0000000000
      6403      2108  TIP3      OH2           -27.8926403985      -15.1654357466       -3.0011546635  SOLV      2097            0.0000000000
      6404      2108  TIP3      H1            -27.7005103985      -16.0964957466       -3.1127046635  SOLV      2097            0.0000000000
      6405      2108  TIP3      H2            -27.0350103985      -14.7404857466       -3.0116146635  SOLV      2097            0.0000000000
      6406      2109  TIP3      OH2           -26.5759203985      -12.3769157466       -4.9238846635  SOLV      2098            0.0000000000
      6407      2109  TIP3      H1            -26.8574203985      -11.6674557466       -5.5015046635  SOLV      2098            0.0000000000
      6408      2109  TIP3      H2            -25.6334903985      -12.4496157466       -5.0747646635  SOLV      2098            0.0000000000
      6409      2110  TIP3      OH2           -35.8240403985      -15.5914657466       -3.8503846635  SOLV      2099            0.0000000000
      6410      2110  TIP3      H1            -36.5911403985      -16.1239857466       -4.0606246635  SOLV      2099            0.0000000000
      6411      2110  TIP3      H2            -35.1451403985      -15.9014257466       -4.4497546635  SOLV      2099            0.0000000000
      6412      2111  TIP3      OH2           -33.0845503985      -20.9636657466       -7.8378446635  SOLV      2100            0.0000000000
      6413      2111  TIP3      H1            -33.1825903985      -20.0173457466       -7.9432246635  SOLV      2100            0.0000000000
      6414      2111  TIP3      H2            -33.8269303985      -21.3362857466       -8.3134946635  SOLV      2100            0.0000000000
      6415      2112  TIP3      OH2           -31.8205003985      -16.6421257466       -4.2740046635  SOLV      2101            0.0000000000
      6416      2112  TIP3      H1            -32.0559603985      -16.8614557466       -3.3725146635  SOLV      2101            0.0000000000
      6417      2112  TIP3      H2            -32.6038103985      -16.8490057466       -4.7837546635  SOLV      2101            0.0000000000
      6418      2113  TIP3      OH2           -29.1048403985      -17.5147757466       -5.1986546635  SOLV      2102            0.0000000000
      6419      2113  TIP3      H1            -30.0523003985      -17.4828057466       -5.0663246635  SOLV      2102            0.0000000000
      6420      2113  TIP3      H2            -28.7921703985      -18.1400657466       -4.5448346635  SOLV      2102            0.0000000000
      6421      2114  TIP3      OH2           -27.4706903985      -18.8806657466       -3.1934646635  SOLV      2103            0.0000000000
      6422      2114  TIP3      H1            -27.5675103985      -19.8329357466       -3.1992746635  SOLV      2103            0.0000000000
      6423      2114  TIP3      H2            -27.7923803985      -18.6119857466       -2.3329146635  SOLV      2103            0.0000000000
      6424      2115  TIP3      OH2           -37.6437603985      -17.6710857466       -4.1459146635  SOLV      2104            0.0000000000
      6425      2115  TIP3      H1            -37.4320203985      -18.3774757466       -4.7561646635  SOLV      2104            0.0000000000
      6426      2115  TIP3      H2            -37.7550103985      -18.1084857466       -3.3017946635  SOLV      2104            0.0000000000
      6427      2116  TIP3      OH2           -32.8627403985      -21.6699257466       -5.1665646635  SOLV      2105            0.0000000000
      6428      2116  TIP3      H1            -32.1509003985      -22.3097057466       -5.1806546635  SOLV      2105            0.0000000000
      6429      2116  TIP3      H2            -32.9637003985      -21.4030957466       -6.0802546635  SOLV      2105            0.0000000000
      6430      2117  TIP3      OH2           -32.5089903985      -19.9870857466       -3.1129346635  SOLV      2106            0.0000000000
      6431      2117  TIP3      H1            -32.6407703985      -20.4627057466       -3.9330846635  SOLV      2106            0.0000000000
      6432      2117  TIP3      H2            -33.1082503985      -19.2427257466       -3.1682246635  SOLV      2106            0.0000000000
      6433      2118  TIP3      OH2           -32.9627603985       -3.1040557466      -19.9365346635  SOLV      2107            0.0000000000
      6434      2118  TIP3      H1            -32.0296903985       -2.9461857466      -19.7926946635  SOLV      2107            0.0000000000
      6435      2118  TIP3      H2            -33.2268803985       -2.4287557466      -20.5613846635  SOLV      2107            0.0000000000
      6436      2119  TIP3      OH2           -39.8752903985       -4.9941257466      -13.5717146635  SOLV      2108            0.0000000000
      6437      2119  TIP3      H1            -40.2096103985       -5.8743957466      -13.3996946635  SOLV      2108            0.0000000000
      6438      2119  TIP3      H2            -39.6530503985       -4.6486257466      -12.7071546635  SOLV      2108            0.0000000000
      6439      2120  TIP3      OH2           -22.3268103985       -4.1844857466      -10.5912346635  SOLV      2109            0.0000000000
      6440      2120  TIP3      H1            -22.3481403985       -3.9996457466       -9.6522946635  SOLV      2109            0.0000000000
      6441      2120  TIP3      H2            -21.6361903985       -3.6160857466      -10.9320946635  SOLV      2109            0.0000000000
      6442      2121  TIP3      OH2           -22.7635203985       -4.6173757466       -7.6693246635  SOLV      2110            0.0000000000
      6443      2121  TIP3      H1            -23.2506503985       -5.3529657466       -8.0405846635  SOLV      2110            0.0000000000
      6444      2121  TIP3      H2            -22.2142503985       -5.0109857466       -6.9913846635  SOLV      2110            0.0000000000
      6445      2122  TIP3      OH2           -24.3127903985       -8.8275657466       -3.0312946635  SOLV      2111            0.0000000000
      6446      2122  TIP3      H1            -25.1786803985       -8.9325957466       -2.6370646635  SOLV      2111            0.0000000000
      6447      2122  TIP3      H2            -23.9362003985       -8.0692357466       -2.5848246635  SOLV      2111            0.0000000000
      6448      2123  TIP3      OH2           -23.0118203985      -10.5711957466      -17.5170446635  SOLV      2112            0.0000000000
      6449      2123  TIP3      H1            -22.1616803985      -10.1501057466      -17.3898846635  SOLV      2112            0.0000000000
      6450      2123  TIP3      H2            -23.0063103985      -11.3111857466      -16.9099046635  SOLV      2112            0.0000000000
      6451      2124  TIP3      OH2           -22.6172603985      -12.5174557466      -15.6934746635  SOLV      2113            0.0000000000
      6452      2124  TIP3      H1            -23.3438003985      -12.9971957466      -15.2957146635  SOLV      2113            0.0000000000
      6453      2124  TIP3      H2            -22.0359303985      -12.3119857466      -14.9613146635  SOLV      2113            0.0000000000
      6454      2125  TIP3      OH2           -22.8581403985       -9.7327057466      -10.7457146635  SOLV      2114            0.0000000000
      6455      2125  TIP3      H1            -22.0247203985      -10.1107057466      -11.0263546635  SOLV      2114            0.0000000000
      6456      2125  TIP3      H2            -22.7461103985       -8.7895857466      -10.8648046635  SOLV      2114            0.0000000000
      6457      2126  TIP3      OH2           -24.3719103985       -6.8549557466       -8.4388746635  SOLV      2115            0.0000000000
      6458      2126  TIP3      H1            -25.0193803985       -6.5298057466       -7.8133546635  SOLV      2115            0.0000000000
      6459      2126  TIP3      H2            -24.8895103985       -7.2951857466       -9.1130446635  SOLV      2115            0.0000000000
      6460      2127  TIP3      OH2           -22.3489503985      -12.6166057466      -19.3023446635  SOLV      2116            0.0000000000
      6461      2127  TIP3      H1            -22.8708403985      -12.2601957466      -20.0212546635  SOLV      2116            0.0000000000
      6462      2127  TIP3      H2            -22.3820303985      -11.9418257466      -18.6242546635  SOLV      2116            0.0000000000
      6463      2128  TIP3      OH2           -24.0000503985      -15.3770457466      -20.7516346635  SOLV      2117            0.0000000000
      6464      2128  TIP3      H1            -23.9036103985      -14.7103457466      -21.4316646635  SOLV      2117            0.0000000000
      6465      2128  TIP3      H2            -24.1400903985      -16.1924157466      -21.2330846635  SOLV      2117            0.0000000000
      6466      2129  TIP3      OH2           -24.8305803985      -13.9968057466      -15.1306046635  SOLV      2118            0.0000000000
      6467      2129  TIP3      H1            -24.9807003985      -14.9419457466      -15.1508246635  SOLV      2118            0.0000000000
      6468      2129  TIP3      H2            -25.1841303985      -13.7156657466      -14.2866946635  SOLV      2118            0.0000000000
      6469      2130  TIP3      OH2           -39.7953403985      -11.9185857466      -11.1202246635  SOLV      2119            0.0000000000
      6470      2130  TIP3      H1            -39.6110503985      -12.0004157466      -12.0559346635  SOLV      2119            0.0000000000
      6471      2130  TIP3      H2            -38.9460503985      -12.0428857466      -10.6965846635  SOLV      2119            0.0000000000
      6472      2131  TIP3      OH2           -23.9742903985      -12.0264757466       -5.4917746635  SOLV      2120            0.0000000000
      6473      2131  TIP3      H1            -23.3915603985      -12.7612457466       -5.3000546635  SOLV      2120            0.0000000000
      6474      2131  TIP3      H2            -23.4103603985      -11.2544457466       -5.4451946635  SOLV      2120            0.0000000000
      6475      2132  TIP3      OH2           -22.4775803985      -14.1238957466       -4.8072346635  SOLV      2121            0.0000000000
      6476      2132  TIP3      H1            -23.3409103985      -14.5026857466       -4.9727646635  SOLV      2121            0.0000000000
      6477      2132  TIP3      H2            -21.8732103985      -14.8624157466       -4.8816546635  SOLV      2121            0.0000000000
      6478      2133  TIP3      OH2           -24.7526703985      -17.9690657466      -21.6340846635  SOLV      2122            0.0000000000
      6479      2133  TIP3      H1            -24.1420903985      -18.3403857466      -20.9972646635  SOLV      2122            0.0000000000
      6480      2133  TIP3      H2            -25.5895203985      -18.3903757466      -21.4380846635  SOLV      2122            0.0000000000
      6481      2134  TIP3      OH2           -25.1201003985      -16.4142257466      -16.6680946635  SOLV      2123            0.0000000000
      6482      2134  TIP3      H1            -24.8403903985      -17.3211857466      -16.5439246635  SOLV      2123            0.0000000000
      6483      2134  TIP3      H2            -24.3609303985      -15.9800757466      -17.0571746635  SOLV      2123            0.0000000000
      6484      2135  TIP3      OH2           -24.5082703985      -15.8324857466      -11.2322046635  SOLV      2124            0.0000000000
      6485      2135  TIP3      H1            -23.5754703985      -15.6204957466      -11.2666046635  SOLV      2124            0.0000000000
      6486      2135  TIP3      H2            -24.7435203985      -15.7312757466      -10.3099046635  SOLV      2124            0.0000000000
      6487      2136  TIP3      OH2           -24.4790803985      -15.0959557466       -8.4562646635  SOLV      2125            0.0000000000
      6488      2136  TIP3      H1            -25.3219503985      -14.8279157466       -8.0902846635  SOLV      2125            0.0000000000
      6489      2136  TIP3      H2            -24.0366503985      -14.2737657466       -8.6671546635  SOLV      2125            0.0000000000
      6490      2137  TIP3      OH2           -40.1978603985      -16.6480857466       -4.9793446635  SOLV      2126            0.0000000000
      6491      2137  TIP3      H1            -39.2783703985      -16.7702557466       -4.7430346635  SOLV      2126            0.0000000000
      6492      2137  TIP3      H2            -40.6474103985      -17.3981157466       -4.5899946635  SOLV      2126            0.0000000000
      6493      2138  TIP3      OH2           -22.1959203985      -21.1159357466       -3.1027646635  SOLV      2127            0.0000000000
      6494      2138  TIP3      H1            -21.8462203985      -21.7695857466       -3.7082946635  SOLV      2127            0.0000000000
      6495      2138  TIP3      H2            -22.0489703985      -20.2785257466       -3.5425046635  SOLV      2127            0.0000000000
      6496      2139  TIP3      OH2           -24.5066203985      -19.1512957466      -16.6198946635  SOLV      2128            0.0000000000
      6497      2139  TIP3      H1            -24.3241203985      -19.6001457466      -15.7943946635  SOLV      2128            0.0000000000
      6498      2139  TIP3      H2            -25.1063303985      -19.7358557466      -17.0834346635  SOLV      2128            0.0000000000
      6499      2140  TIP3      OH2           -38.9766103985      -18.3359257466      -12.0880546635  SOLV      2129            0.0000000000
      6500      2140  TIP3      H1            -38.5314503985      -19.1276757466      -11.7860846635  SOLV      2129            0.0000000000
      6501      2140  TIP3      H2            -38.5103103985      -17.6194057466      -11.6574946635  SOLV      2129            0.0000000000
      6502      2141  TIP3      OH2           -40.6725803985      -15.3366257466      -11.0190346635  SOLV      2130            0.0000000000
      6503      2141  TIP3      H1            -40.1806003985      -15.5575757466      -11.8098346635  SOLV      2130            0.0000000000
      6504      2141  TIP3      H2            -40.3104903985      -14.4962857466      -10.7380846635  SOLV      2130            0.0000000000
      6505      2142  TIP3      OH2           -22.6762003985      -19.0064757466       -4.7536346635  SOLV      2131            0.0000000000
      6506      2142  TIP3      H1            -23.5936303985      -18.7357657466       -4.7892846635  SOLV      2131            0.0000000000
      6507      2142  TIP3      H2            -22.5532603985      -19.5416357466       -5.5376646635  SOLV      2131            0.0000000000
      6508      2143  TIP3      OH2           -22.6400003985      -19.0834857466      -20.0918646635  SOLV      2132            0.0000000000
      6509      2143  TIP3      H1            -22.2277403985      -19.8049157466      -20.5670646635  SOLV      2132            0.0000000000
      6510      2143  TIP3      H2            -21.9583503985      -18.4140257466      -20.0334346635  SOLV      2132            0.0000000000
      6511      2144  TIP3      OH2           -25.5882103985       -4.0945457466      -15.0190546635  SOLV      2133            0.0000000000
      6512      2144  TIP3      H1            -24.9359203985       -4.4423357466      -15.6271446635  SOLV      2133            0.0000000000
      6513      2144  TIP3      H2            -25.0778303985       -3.6062257466      -14.3730846635  SOLV      2133            0.0000000000
      6514      2145  TIP3      OH2           -38.2034603985       -7.1654057466       -4.4759646635  SOLV      2134            0.0000000000
      6515      2145  TIP3      H1            -39.0242103985       -6.9907557466       -4.9364946635  SOLV      2134            0.0000000000
      6516      2145  TIP3      H2            -38.4556803985       -7.2389357466       -3.5555246635  SOLV      2134            0.0000000000
      6517      2146  TIP3      OH2           -35.2491703985       -6.1912857466       -8.2175646635  SOLV      2135            0.0000000000
      6518      2146  TIP3      H1            -35.6740603985       -5.3814357466       -8.5001046635  SOLV      2135            0.0000000000
      6519      2146  TIP3      H2            -34.3448903985       -6.1058757466       -8.5195846635  SOLV      2135            0.0000000000
      6520      2147  TIP3      OH2           -30.9380303985       -4.7922857466       -5.2581946635  SOLV      2136            0.0000000000
      6521      2147  TIP3      H1            -30.7532803985       -5.1256757466       -4.3801646635  SOLV      2136            0.0000000000
      6522      2147  TIP3      H2            -30.0915803985       -4.4824257466       -5.5802746635  SOLV      2136            0.0000000000
      6523      2148  TIP3      OH2           -28.5929903985       -3.5063957466       -6.0140546635  SOLV      2137            0.0000000000
      6524      2148  TIP3      H1            -27.9161003985       -4.1391657466       -6.2541346635  SOLV      2137            0.0000000000
      6525      2148  TIP3      H2            -28.2711103985       -3.1053457466       -5.2067246635  SOLV      2137            0.0000000000
      6526      2149  TIP3      OH2           -23.6756103985      -20.9168457466       -6.9345546635  SOLV      2138            0.0000000000
      6527      2149  TIP3      H1            -24.4882603985      -20.5918157466       -7.3220846635  SOLV      2138            0.0000000000
      6528      2149  TIP3      H2            -23.4427603985      -21.6769957466       -7.4676446635  SOLV      2138            0.0000000000
      6529      2150  TIP3      OH2           -37.8475003985       -2.9348957466       -8.1700346635  SOLV      2139            0.0000000000
      6530      2150  TIP3      H1            -38.5678603985       -2.4947957466       -8.6212646635  SOLV      2139            0.0000000000
      6531      2150  TIP3      H2            -38.2131003985       -3.1854257466       -7.3216346635  SOLV      2139            0.0000000000
      6532      2151  TIP3      OH2           -35.3802403985       -3.3345057466       -9.1403146635  SOLV      2140            0.0000000000
      6533      2151  TIP3      H1            -36.2450203985       -3.2626557466       -8.7363046635  SOLV      2140            0.0000000000
      6534      2151  TIP3      H2            -35.4353403985       -2.7877757466       -9.9240646635  SOLV      2140            0.0000000000
      6535      2152  TIP3      OH2           -30.6696803985       -3.4466157466       -9.9647146635  SOLV      2141            0.0000000000
      6536      2152  TIP3      H1            -31.1262803985       -2.9176457466      -10.6188746635  SOLV      2141            0.0000000000
      6537      2152  TIP3      H2            -30.5068803985       -2.8434757466       -9.2394846635  SOLV      2141            0.0000000000
      6538      2153  TIP3      OH2           -28.3420503985       -4.5686557466       -9.0196846635  SOLV      2142            0.0000000000
      6539      2153  TIP3      H1            -29.2466803985       -4.4036357466       -9.2854746635  SOLV      2142            0.0000000000
      6540      2153  TIP3      H2            -27.9131903985       -3.7154357466       -9.0853446635  SOLV      2142            0.0000000000
      6541      2154  TIP3      OH2           -25.7378603985       -2.9987457466       -8.7249046635  SOLV      2143            0.0000000000
      6542      2154  TIP3      H1            -25.9196603985       -2.0828557466       -8.9354146635  SOLV      2143            0.0000000000
      6543      2154  TIP3      H2            -25.5610803985       -3.4090357466       -9.5714446635  SOLV      2143            0.0000000000
      6544      2155  TIP3      OH2           -38.4326903985       -4.3116457466      -11.2598546635  SOLV      2144            0.0000000000
      6545      2155  TIP3      H1            -38.4510903985       -4.7371357466      -10.4026246635  SOLV      2144            0.0000000000
      6546      2155  TIP3      H2            -37.6279003985       -4.6301457466      -11.6686346635  SOLV      2144            0.0000000000
      6547      2156  TIP3      OH2           -36.2913803985       -5.6017757466      -12.6048646635  SOLV      2145            0.0000000000
      6548      2156  TIP3      H1            -36.5103103985       -6.5180357466      -12.4352646635  SOLV      2145            0.0000000000
      6549      2156  TIP3      H2            -35.4671603985       -5.4617357466      -12.1387246635  SOLV      2145            0.0000000000
      6550      2157  TIP3      OH2           -33.7541303985       -5.1318457466      -11.7560646635  SOLV      2146            0.0000000000
      6551      2157  TIP3      H1            -33.5415603985       -6.0199457466      -12.0429746635  SOLV      2146            0.0000000000
      6552      2157  TIP3      H2            -33.6896203985       -5.1660757466      -10.8016646635  SOLV      2146            0.0000000000
      6553      2158  TIP3      OH2           -30.2457603985      -19.4677857466      -12.6117346635  SOLV      2147            0.0000000000
      6554      2158  TIP3      H1            -30.9200803985      -20.0972257466      -12.3561546635  SOLV      2147            0.0000000000
      6555      2158  TIP3      H2            -29.6818403985      -19.9518957466      -13.2149446635  SOLV      2147            0.0000000000
      6556      2159  TIP3      OH2           -25.1030403985      -21.3603857466      -12.4990246635  SOLV      2148            0.0000000000
      6557      2159  TIP3      H1            -24.4992803985      -20.8128457466      -13.0009246635  SOLV      2148            0.0000000000
      6558      2159  TIP3      H2            -25.9728403985      -21.0413457466      -12.7396146635  SOLV      2148            0.0000000000
      6559      2160  TIP3      OH2           -23.3760003985      -20.2215157466      -14.1659346635  SOLV      2149            0.0000000000
      6560      2160  TIP3      H1            -22.7642503985      -20.7359457466      -14.6925746635  SOLV      2149            0.0000000000
      6561      2160  TIP3      H2            -22.9936603985      -19.3443057466      -14.1424946635  SOLV      2149            0.0000000000
      6562      2161  TIP3      OH2           -33.3397503985      -20.9070457466      -14.9764346635  SOLV      2150            0.0000000000
      6563      2161  TIP3      H1            -32.4654103985      -20.5186157466      -15.0060046635  SOLV      2150            0.0000000000
      6564      2161  TIP3      H2            -33.4756703985      -21.1222657466      -14.0537146635  SOLV      2150            0.0000000000
      6565      2162  TIP3      OH2           -27.7829103985      -20.8770657466      -13.3272646635  SOLV      2151            0.0000000000
      6566      2162  TIP3      H1            -27.7067503985      -20.7819057466      -14.2766646635  SOLV      2151            0.0000000000
      6567      2162  TIP3      H2            -28.0579903985      -21.7847757466      -13.1983546635  SOLV      2151            0.0000000000
      6568      2163  TIP3      OH2           -26.4296503985      -20.8512857466      -17.6347646635  SOLV      2152            0.0000000000
      6569      2163  TIP3      H1            -27.1325403985      -20.2363657466      -17.8446246635  SOLV      2152            0.0000000000
      6570      2163  TIP3      H2            -26.8745103985      -21.6886157466      -17.5036746635  SOLV      2152            0.0000000000
      6571      2164  TIP3      OH2           -39.1817203985       -5.0877257466      -18.0886246635  SOLV      2153            0.0000000000
      6572      2164  TIP3      H1            -39.8667303985       -5.1258357466      -18.7561146635  SOLV      2153            0.0000000000
      6573      2164  TIP3      H2            -39.1780003985       -4.1749657466      -17.8004146635  SOLV      2153            0.0000000000
      6574      2165  TIP3      OH2           -32.1957503985      -18.8266457466      -18.0866746635  SOLV      2154            0.0000000000
      6575      2165  TIP3      H1            -32.0176203985      -19.4733257466      -17.4038146635  SOLV      2154            0.0000000000
      6576      2165  TIP3      H2            -32.2491303985      -17.9928757466      -17.6195646635  SOLV      2154            0.0000000000
      6577      2166  TIP3      OH2           -30.3173703985       -3.8782357466      -19.6910046635  SOLV      2155            0.0000000000
      6578      2166  TIP3      H1            -29.4513503985       -3.5114957466      -19.8691846635  SOLV      2155            0.0000000000
      6579      2166  TIP3      H2            -30.5640903985       -4.3174357466      -20.5049246635  SOLV      2155            0.0000000000
      6580      2167  TIP3      OH2           -23.6084103985       -4.3152057466      -17.0118946635  SOLV      2156            0.0000000000
      6581      2167  TIP3      H1            -23.8027003985       -5.0629957466      -17.5769346635  SOLV      2156            0.0000000000
      6582      2167  TIP3      H2            -23.6474003985       -3.5571957466      -17.5951046635  SOLV      2156            0.0000000000
      6583      2168  TIP3      OH2           -37.9612103985      -20.3195657466       -5.2721246635  SOLV      2157            0.0000000000
      6584      2168  TIP3      H1            -38.3273903985      -21.0853057466       -4.8296546635  SOLV      2157            0.0000000000
      6585      2168  TIP3      H2            -37.0483603985      -20.2905457466       -4.9856146635  SOLV      2157            0.0000000000
      6586      2169  TIP3      OH2           -35.9881303985      -20.9691257466       -3.7364146635  SOLV      2158            0.0000000000
      6587      2169  TIP3      H1            -35.0897703985      -21.2431057466       -3.9210746635  SOLV      2158            0.0000000000
      6588      2169  TIP3      H2            -36.3748203985      -21.7115257466       -3.2721546635  SOLV      2158            0.0000000000
      6589      2170  TIP3      OH2           -37.3636003985       -4.1676457466      -21.0634146635  SOLV      2159            0.0000000000
      6590      2170  TIP3      H1            -37.6311403985       -3.8813557466      -20.1901046635  SOLV      2159            0.0000000000
      6591      2170  TIP3      H2            -36.5923403985       -4.7137257466      -20.9111646635  SOLV      2159            0.0000000000
      6592      2171  TIP3      OH2           -27.5669003985      -21.6365957466       -3.5541346635  SOLV      2160            0.0000000000
      6593      2171  TIP3      H1            -27.4901803985      -22.0625257466       -2.7003646635  SOLV      2160            0.0000000000
      6594      2171  TIP3      H2            -26.6732403985      -21.6231257466       -3.8967846635  SOLV      2160            0.0000000000
      6595      2172  TIP3      OH2           -24.3907903985       -5.5639657466       -4.8617146635  SOLV      2161            0.0000000000
      6596      2172  TIP3      H1            -25.1726003985       -5.7501657466       -5.3816546635  SOLV      2161            0.0000000000
      6597      2172  TIP3      H2            -24.4628003985       -4.6345357466       -4.6444646635  SOLV      2161            0.0000000000
      6598      2173  TIP3      OH2            -9.9847503985      -11.6775257466      -14.8309946635  SOLV      2162            0.0000000000
      6599      2173  TIP3      H1             -9.8956403985      -10.7337057466      -14.9632846635  SOLV      2162            0.0000000000
      6600      2173  TIP3      H2            -10.6229903985      -11.9528857466      -15.4890546635  SOLV      2162            0.0000000000
      6601      2174  TIP3      OH2           -11.0516203985      -12.4224557466      -11.4121746635  SOLV      2163            0.0000000000
      6602      2174  TIP3      H1            -11.0898703985      -13.0688257466      -10.7072146635  SOLV      2163            0.0000000000
      6603      2174  TIP3      H2            -11.3739703985      -12.8890157466      -12.1833046635  SOLV      2163            0.0000000000
      6604      2175  TIP3      OH2           -18.6831203985      -12.8082457466       -9.8191846635  SOLV      2164            0.0000000000
      6605      2175  TIP3      H1            -18.6419103985      -13.4339157466       -9.0959446635  SOLV      2164            0.0000000000
      6606      2175  TIP3      H2            -17.9803503985      -12.1843857466       -9.6371446635  SOLV      2164            0.0000000000
      6607      2176  TIP3      OH2            -7.3456003985       -9.4834157466      -13.1106646635  SOLV      2165            0.0000000000
      6608      2176  TIP3      H1             -7.7863303985      -10.2038157466      -12.6601046635  SOLV      2165            0.0000000000
      6609      2176  TIP3      H2             -7.3586303985       -8.7626957466      -12.4808946635  SOLV      2165            0.0000000000
      6610      2177  TIP3      OH2           -17.7598103985       -8.3583557466      -11.2842746635  SOLV      2166            0.0000000000
      6611      2177  TIP3      H1            -18.1292903985       -9.1603057466      -11.6538446635  SOLV      2166            0.0000000000
      6612      2177  TIP3      H2            -16.8187003985       -8.5268657466      -11.2379346635  SOLV      2166            0.0000000000
      6613      2178  TIP3      OH2           -21.1497603985      -14.6980957466      -15.8913946635  SOLV      2167            0.0000000000
      6614      2178  TIP3      H1            -21.5974203985      -13.8522257466      -15.9097446635  SOLV      2167            0.0000000000
      6615      2178  TIP3      H2            -21.7106403985      -15.2776757466      -16.4068846635  SOLV      2167            0.0000000000
      6616      2179  TIP3      OH2           -20.4391503985      -12.5361357466      -13.7655946635  SOLV      2168            0.0000000000
      6617      2179  TIP3      H1            -20.2258003985      -13.3059757466      -13.2382946635  SOLV      2168            0.0000000000
      6618      2179  TIP3      H2            -19.7013903985      -12.4464657466      -14.3688346635  SOLV      2168            0.0000000000
      6619      2180  TIP3      OH2           -10.2340503985       -4.3792457466      -12.8986246635  SOLV      2169            0.0000000000
      6620      2180  TIP3      H1             -9.6144103985       -5.0557757466      -13.1717046635  SOLV      2169            0.0000000000
      6621      2180  TIP3      H2            -10.4423103985       -4.5971657466      -11.9901346635  SOLV      2169            0.0000000000
      6622      2181  TIP3      OH2           -12.6621803985       -9.9903157466      -11.0060746635  SOLV      2170            0.0000000000
      6623      2181  TIP3      H1            -12.3583903985      -10.6761757466      -11.6006646635  SOLV      2170            0.0000000000
      6624      2181  TIP3      H2            -11.9407803985       -9.8714457466      -10.3882746635  SOLV      2170            0.0000000000
      6625      2182  TIP3      OH2            -3.9992003985      -18.3887857466      -10.1454546635  SOLV      2171            0.0000000000
      6626      2182  TIP3      H1             -3.9499803985      -17.7786657466       -9.4095446635  SOLV      2171            0.0000000000
      6627      2182  TIP3      H2             -3.5736903985      -17.9276957466      -10.8683446635  SOLV      2171            0.0000000000
      6628      2183  TIP3      OH2            -9.5214803985      -15.5960757466      -10.6785946635  SOLV      2172            0.0000000000
      6629      2183  TIP3      H1             -9.3788903985      -16.5423757466      -10.6584346635  SOLV      2172            0.0000000000
      6630      2183  TIP3      H2             -9.6275803985      -15.3890957466      -11.6071046635  SOLV      2172            0.0000000000
      6631      2184  TIP3      OH2           -16.3666503985      -17.4944357466      -13.4061146635  SOLV      2173            0.0000000000
      6632      2184  TIP3      H1            -16.3235403985      -16.6345857466      -13.8244846635  SOLV      2173            0.0000000000
      6633      2184  TIP3      H2            -16.8242403985      -18.0469657466      -14.0397946635  SOLV      2173            0.0000000000
      6634      2185  TIP3      OH2            -8.6443803985      -17.3638757466      -15.0052846635  SOLV      2174            0.0000000000
      6635      2185  TIP3      H1             -7.9979503985      -17.6925557466      -14.3805246635  SOLV      2174            0.0000000000
      6636      2185  TIP3      H2             -8.1344403985      -16.8459757466      -15.6281446635  SOLV      2174            0.0000000000
      6637      2186  TIP3      OH2           -19.7465003985      -15.0978557466      -12.6439746635  SOLV      2175            0.0000000000
      6638      2186  TIP3      H1            -19.0928403985      -15.6476857466      -12.2119646635  SOLV      2175            0.0000000000
      6639      2186  TIP3      H2            -19.7225703985      -15.3719557466      -13.5607746635  SOLV      2175            0.0000000000
      6640      2187  TIP3      OH2           -14.5900503985      -13.5477257466      -13.4288246635  SOLV      2176            0.0000000000
      6641      2187  TIP3      H1            -13.9739503985      -14.0741857466      -12.9194246635  SOLV      2176            0.0000000000
      6642      2187  TIP3      H2            -15.1761703985      -14.1878557466      -13.8324646635  SOLV      2176            0.0000000000
      6643      2188  TIP3      OH2            -3.6077403985      -16.9108657466       -7.9094746635  SOLV      2177            0.0000000000
      6644      2188  TIP3      H1             -4.2962803985      -16.2527957466       -8.0048146635  SOLV      2177            0.0000000000
      6645      2188  TIP3      H2             -3.5922803985      -17.1080757466       -6.9729346635  SOLV      2177            0.0000000000
      6646      2189  TIP3      OH2           -17.5564603985      -18.5765957466       -9.3320346635  SOLV      2178            0.0000000000
      6647      2189  TIP3      H1            -17.7752903985      -18.0465357466      -10.0984346635  SOLV      2178            0.0000000000
      6648      2189  TIP3      H2            -18.2243703985      -18.3500457466       -8.6848946635  SOLV      2178            0.0000000000
      6649      2190  TIP3      OH2           -10.1874803985       -9.0764857466      -15.7881246635  SOLV      2179            0.0000000000
      6650      2190  TIP3      H1            -10.4829703985       -9.3992557466      -16.6394346635  SOLV      2179            0.0000000000
      6651      2190  TIP3      H2            -10.5117003985       -8.1768157466      -15.7468646635  SOLV      2179            0.0000000000
      6652      2191  TIP3      OH2           -14.9873203985      -10.9010257466       -9.0446646635  SOLV      2180            0.0000000000
      6653      2191  TIP3      H1            -15.7274103985      -10.3028757466       -8.9411446635  SOLV      2180            0.0000000000
      6654      2191  TIP3      H2            -14.2733703985      -10.3470657466       -9.3603046635  SOLV      2180            0.0000000000
      6655      2192  TIP3      OH2            -6.8805403985      -18.0729457466      -13.0246946635  SOLV      2181            0.0000000000
      6656      2192  TIP3      H1             -7.0957403985      -18.8386057466      -12.4920946635  SOLV      2181            0.0000000000
      6657      2192  TIP3      H2             -6.2248003985      -17.6004857466      -12.5118446635  SOLV      2181            0.0000000000
      6658      2193  TIP3      OH2           -17.9627303985      -16.6844157466      -11.3798146635  SOLV      2182            0.0000000000
      6659      2193  TIP3      H1            -17.3491003985      -16.0516557466      -11.0065746635  SOLV      2182            0.0000000000
      6660      2193  TIP3      H2            -17.4506603985      -17.1569157466      -12.0361246635  SOLV      2182            0.0000000000
      6661      2194  TIP3      OH2           -16.5798903985       -8.9367257466       -8.2575146635  SOLV      2183            0.0000000000
      6662      2194  TIP3      H1            -16.5851303985       -8.0573757466       -8.6355846635  SOLV      2183            0.0000000000
      6663      2194  TIP3      H2            -17.4334803985       -9.0203157466       -7.8325246635  SOLV      2183            0.0000000000
      6664      2195  TIP3      OH2           -20.4588003985       -9.2659357466      -17.4755846635  SOLV      2184            0.0000000000
      6665      2195  TIP3      H1            -20.7307103985       -9.0368357466      -18.3642946635  SOLV      2184            0.0000000000
      6666      2195  TIP3      H2            -20.4132303985       -8.4280557466      -17.0150546635  SOLV      2184            0.0000000000
      6667      2196  TIP3      OH2            -6.8338303985       -7.6443457466      -10.7627346635  SOLV      2185            0.0000000000
      6668      2196  TIP3      H1             -7.7754603985       -7.5859557466      -10.6010446635  SOLV      2185            0.0000000000
      6669      2196  TIP3      H2             -6.5572203985       -6.7382957466      -10.8997646635  SOLV      2185            0.0000000000
      6670      2197  TIP3      OH2            -6.5331303985      -19.3578157466       -9.3453446635  SOLV      2186            0.0000000000
      6671      2197  TIP3      H1             -7.2692103985      -18.7471057466       -9.3832146635  SOLV      2186            0.0000000000
      6672      2197  TIP3      H2             -5.8497303985      -18.9429157466       -9.8717046635  SOLV      2186            0.0000000000
      6673      2198  TIP3      OH2           -13.5299903985      -21.2710857466      -11.8795446635  SOLV      2187            0.0000000000
      6674      2198  TIP3      H1            -13.6475703985      -22.2194857466      -11.9337146635  SOLV      2187            0.0000000000
      6675      2198  TIP3      H2            -14.3849803985      -20.9384757466      -11.6064346635  SOLV      2187            0.0000000000
      6676      2199  TIP3      OH2            -8.5817103985       -5.8629957466      -14.1375746635  SOLV      2188            0.0000000000
      6677      2199  TIP3      H1             -8.1564803985       -6.5702057466      -14.6226146635  SOLV      2188            0.0000000000
      6678      2199  TIP3      H2             -8.2647103985       -5.0617257466      -14.5543546635  SOLV      2188            0.0000000000
      6679      2200  TIP3      OH2            -7.4220603985       -7.9621457466      -15.6289146635  SOLV      2189            0.0000000000
      6680      2200  TIP3      H1             -7.6795803985       -8.6521357466      -16.2403246635  SOLV      2189            0.0000000000
      6681      2200  TIP3      H2             -7.3509803985       -8.4050257466      -14.7833246635  SOLV      2189            0.0000000000
      6682      2201  TIP3      OH2            -5.7360403985       -9.3954757466       -7.1515646635  SOLV      2190            0.0000000000
      6683      2201  TIP3      H1             -5.5964103985       -9.9872257466       -7.8908646635  SOLV      2190            0.0000000000
      6684      2201  TIP3      H2             -5.5687603985       -8.5228857466       -7.5076846635  SOLV      2190            0.0000000000
      6685      2202  TIP3      OH2           -11.2635003985      -12.4335257466      -17.3789646635  SOLV      2191            0.0000000000
      6686      2202  TIP3      H1            -11.9749503985      -11.8985557466      -17.7309146635  SOLV      2191            0.0000000000
      6687      2202  TIP3      H2            -10.5725403985      -12.3783157466      -18.0390746635  SOLV      2191            0.0000000000
      6688      2203  TIP3      OH2           -11.2095803985      -13.9760957466      -20.3404646635  SOLV      2192            0.0000000000
      6689      2203  TIP3      H1            -10.5085903985      -13.9534057466      -19.6890646635  SOLV      2192            0.0000000000
      6690      2203  TIP3      H2            -10.9072903985      -14.6041257466      -20.9965346635  SOLV      2192            0.0000000000
      6691      2204  TIP3      OH2            -3.8941103985      -13.0556757466       -9.0855246635  SOLV      2193            0.0000000000
      6692      2204  TIP3      H1             -4.5467003985      -12.3611157466       -8.9964346635  SOLV      2193            0.0000000000
      6693      2204  TIP3      H2             -3.4290803985      -12.8455857466       -9.8953646635  SOLV      2193            0.0000000000
      6694      2205  TIP3      OH2            -7.8577303985      -12.2241957466      -16.4273746635  SOLV      2194            0.0000000000
      6695      2205  TIP3      H1             -8.5896303985      -11.9958257466      -15.8543146635  SOLV      2194            0.0000000000
      6696      2205  TIP3      H2             -7.4105103985      -12.9379257466      -15.9726246635  SOLV      2194            0.0000000000
      6697      2206  TIP3      OH2            -7.9603803985      -14.0499357466       -7.3596746635  SOLV      2195            0.0000000000
      6698      2206  TIP3      H1             -7.8804703985      -13.2864957466       -6.7878246635  SOLV      2195            0.0000000000
      6699      2206  TIP3      H2             -8.5616103985      -13.7706957466       -8.0501646635  SOLV      2195            0.0000000000
      6700      2207  TIP3      OH2           -16.2123603985      -11.5935757466      -14.5448746635  SOLV      2196            0.0000000000
      6701      2207  TIP3      H1            -16.5428403985      -11.9642357466      -15.3631746635  SOLV      2196            0.0000000000
      6702      2207  TIP3      H2            -15.6239503985      -12.2641757466      -14.1980446635  SOLV      2196            0.0000000000
      6703      2208  TIP3      OH2           -14.8456103985       -8.1655157466      -11.8636546635  SOLV      2197            0.0000000000
      6704      2208  TIP3      H1            -14.9404803985       -8.7442057466      -12.6201946635  SOLV      2197            0.0000000000
      6705      2208  TIP3      H2            -14.1162503985       -8.5369457466      -11.3673746635  SOLV      2197            0.0000000000
      6706      2209  TIP3      OH2           -15.8458103985      -12.8250157466      -10.9113746635  SOLV      2198            0.0000000000
      6707      2209  TIP3      H1            -15.2805603985      -12.7035957466      -11.6742546635  SOLV      2198            0.0000000000
      6708      2209  TIP3      H2            -15.5269203985      -12.1875157466      -10.2725246635  SOLV      2198            0.0000000000
      6709      2210  TIP3      OH2            -9.5365903985       -7.3218257466      -10.1773246635  SOLV      2199            0.0000000000
      6710      2210  TIP3      H1             -9.7769303985       -6.6595157466       -9.5294046635  SOLV      2199            0.0000000000
      6711      2210  TIP3      H2             -9.7347703985       -8.1563057466       -9.7523646635  SOLV      2199            0.0000000000
      6712      2211  TIP3      OH2           -14.9657403985       -8.4257457466       -6.1941846635  SOLV      2200            0.0000000000
      6713      2211  TIP3      H1            -15.2769903985       -7.6434257466       -5.7388646635  SOLV      2200            0.0000000000
      6714      2211  TIP3      H2            -15.6157203985       -8.5788357466       -6.8799846635  SOLV      2200            0.0000000000
      6715      2212  TIP3      OH2            -8.9867803985      -13.0619057466      -18.7422546635  SOLV      2201            0.0000000000
      6716      2212  TIP3      H1             -8.4072303985      -12.9118757466      -17.9953646635  SOLV      2201            0.0000000000
      6717      2212  TIP3      H2             -8.5727803985      -12.5911657466      -19.4656146635  SOLV      2201            0.0000000000
      6718      2213  TIP3      OH2           -18.0457503985      -12.2276357466       -6.9656146635  SOLV      2202            0.0000000000
      6719      2213  TIP3      H1            -17.9754303985      -11.5769557466       -6.2671146635  SOLV      2202            0.0000000000
      6720      2213  TIP3      H2            -18.9365303985      -12.1248857466       -7.3005246635  SOLV      2202            0.0000000000
      6721      2214  TIP3      OH2           -11.2602903985       -6.3250557466      -15.3069446635  SOLV      2203            0.0000000000
      6722      2214  TIP3      H1            -10.7865303985       -6.0294257466      -14.5295246635  SOLV      2203            0.0000000000
      6723      2214  TIP3      H2            -11.8233603985       -5.5868957466      -15.5399846635  SOLV      2203            0.0000000000
      6724      2215  TIP3      OH2           -16.7261503985       -6.3542457466       -5.4308046635  SOLV      2204            0.0000000000
      6725      2215  TIP3      H1            -16.7186203985       -6.4902757466       -6.3782546635  SOLV      2204            0.0000000000
      6726      2215  TIP3      H2            -17.6421103985       -6.4714357466       -5.1788046635  SOLV      2204            0.0000000000
      6727      2216  TIP3      OH2            -5.2879403985      -21.3118657466      -18.9292846635  SOLV      2205            0.0000000000
      6728      2216  TIP3      H1             -6.1878703985      -21.1729657466      -18.6342246635  SOLV      2205            0.0000000000
      6729      2216  TIP3      H2             -5.0361003985      -20.4804057466      -19.3311146635  SOLV      2205            0.0000000000
      6730      2217  TIP3      OH2            -4.0988003985       -6.9456257466      -20.5528946635  SOLV      2206            0.0000000000
      6731      2217  TIP3      H1             -4.0254503985       -6.0066057466      -20.3823646635  SOLV      2206            0.0000000000
      6732      2217  TIP3      H2             -3.1932903985       -7.2507657466      -20.6091646635  SOLV      2206            0.0000000000
      6733      2218  TIP3      OH2           -21.1290803985      -10.1612257466       -8.1406146635  SOLV      2207            0.0000000000
      6734      2218  TIP3      H1            -21.6302403985      -10.1892857466       -8.9556446635  SOLV      2207            0.0000000000
      6735      2218  TIP3      H2            -21.1237103985      -11.0669057466       -7.8308846635  SOLV      2207            0.0000000000
      6736      2219  TIP3      OH2           -21.3788103985       -7.3808457466      -11.2565946635  SOLV      2208            0.0000000000
      6737      2219  TIP3      H1            -20.4327503985       -7.5251457466      -11.2756446635  SOLV      2208            0.0000000000
      6738      2219  TIP3      H2            -21.4911803985       -6.5965657466      -10.7194746635  SOLV      2208            0.0000000000
      6739      2220  TIP3      OH2            -3.1809603985       -6.7148757466       -5.5742246635  SOLV      2209            0.0000000000
      6740      2220  TIP3      H1             -3.2302803985       -7.6700657466       -5.6114646635  SOLV      2209            0.0000000000
      6741      2220  TIP3      H2             -4.0077303985       -6.4473457466       -5.1728446635  SOLV      2209            0.0000000000
      6742      2221  TIP3      OH2           -12.2025603985       -7.1409557466       -6.6980846635  SOLV      2210            0.0000000000
      6743      2221  TIP3      H1            -12.1151003985       -6.3144957466       -6.2231746635  SOLV      2210            0.0000000000
      6744      2221  TIP3      H2            -13.0660503985       -7.4705757466       -6.4491546635  SOLV      2210            0.0000000000
      6745      2222  TIP3      OH2           -11.7879803985       -3.3685857466      -16.8920246635  SOLV      2211            0.0000000000
      6746      2222  TIP3      H1            -11.8633803985       -3.4898657466      -17.8385046635  SOLV      2211            0.0000000000
      6747      2222  TIP3      H2            -11.7551103985       -2.4193157466      -16.7735646635  SOLV      2211            0.0000000000
      6748      2223  TIP3      OH2           -18.1346003985       -4.5798857466      -15.1111246635  SOLV      2212            0.0000000000
      6749      2223  TIP3      H1            -17.9825603985       -4.9278457466      -14.2324746635  SOLV      2212            0.0000000000
      6750      2223  TIP3      H2            -18.9855603985       -4.9361557466      -15.3664046635  SOLV      2212            0.0000000000
      6751      2224  TIP3      OH2            -8.6863803985       -4.2145657466      -19.8897846635  SOLV      2213            0.0000000000
      6752      2224  TIP3      H1             -8.3115403985       -4.9589557466      -20.3605246635  SOLV      2213            0.0000000000
      6753      2224  TIP3      H2             -8.6820103985       -4.4845057466      -18.9714546635  SOLV      2213            0.0000000000
      6754      2225  TIP3      OH2            -9.0175703985       -4.2888557466      -17.1405646635  SOLV      2214            0.0000000000
      6755      2225  TIP3      H1             -9.9525903985       -4.1886657466      -16.9618646635  SOLV      2214            0.0000000000
      6756      2225  TIP3      H2             -8.7373803985       -4.9982557466      -16.5622446635  SOLV      2214            0.0000000000
      6757      2226  TIP3      OH2            -6.0289803985      -15.2216257466       -5.0940046635  SOLV      2215            0.0000000000
      6758      2226  TIP3      H1             -6.4363003985      -14.7410657466       -5.8146746635  SOLV      2215            0.0000000000
      6759      2226  TIP3      H2             -5.9884103985      -16.1270257466       -5.4019246635  SOLV      2215            0.0000000000
      6760      2227  TIP3      OH2           -18.8800303985       -8.8376857466       -7.0973346635  SOLV      2216            0.0000000000
      6761      2227  TIP3      H1            -18.6639003985       -9.1991257466       -6.2377546635  SOLV      2216            0.0000000000
      6762      2227  TIP3      H2            -19.7355603985       -9.2123057466       -7.3069846635  SOLV      2216            0.0000000000
      6763      2228  TIP3      OH2           -16.2612303985      -20.3676357466      -11.1019146635  SOLV      2217            0.0000000000
      6764      2228  TIP3      H1            -17.1228603985      -20.4548157466      -11.5096246635  SOLV      2217            0.0000000000
      6765      2228  TIP3      H2            -16.2836603985      -19.5116257466      -10.6741546635  SOLV      2217            0.0000000000
      6766      2229  TIP3      OH2           -11.5984503985      -20.6455957466       -7.7272146635  SOLV      2218            0.0000000000
      6767      2229  TIP3      H1            -11.1781403985      -21.0608857466       -6.9741546635  SOLV      2218            0.0000000000
      6768      2229  TIP3      H2            -12.5314903985      -20.8242657466       -7.6100146635  SOLV      2218            0.0000000000
      6769      2230  TIP3      OH2            -8.2719603985      -16.8900757466       -6.8737646635  SOLV      2219            0.0000000000
      6770      2230  TIP3      H1             -8.7860103985      -17.0158557466       -6.0761646635  SOLV      2219            0.0000000000
      6771      2230  TIP3      H2             -8.4274903985      -15.9777657466       -7.1181446635  SOLV      2219            0.0000000000
      6772      2231  TIP3      OH2            -7.5094703985      -12.0290757466      -21.1124646635  SOLV      2220            0.0000000000
      6773      2231  TIP3      H1             -7.4673903985      -12.2516857466      -22.0424646635  SOLV      2220            0.0000000000
      6774      2231  TIP3      H2             -6.6602603985      -11.6303657466      -20.9224746635  SOLV      2220            0.0000000000
      6775      2232  TIP3      OH2           -11.9367203985      -18.1532557466      -20.4421346635  SOLV      2221            0.0000000000
      6776      2232  TIP3      H1            -12.1902403985      -18.1340957466      -19.5193246635  SOLV      2221            0.0000000000
      6777      2232  TIP3      H2            -12.1935103985      -19.0247157466      -20.7435146635  SOLV      2221            0.0000000000
      6778      2233  TIP3      OH2           -16.1702203985      -15.4021857466      -10.0068946635  SOLV      2222            0.0000000000
      6779      2233  TIP3      H1            -16.8120103985      -15.4424557466       -9.2978846635  SOLV      2222            0.0000000000
      6780      2233  TIP3      H2            -16.1330203985      -14.4757157466      -10.2445946635  SOLV      2222            0.0000000000
      6781      2234  TIP3      OH2           -16.1733103985      -15.1811757466      -15.0948946635  SOLV      2223            0.0000000000
      6782      2234  TIP3      H1            -17.0660203985      -15.5215657466      -15.1535146635  SOLV      2223            0.0000000000
      6783      2234  TIP3      H2            -15.7226503985      -15.5580857466      -15.8505746635  SOLV      2223            0.0000000000
      6784      2235  TIP3      OH2           -10.6377603985      -14.7651457466      -16.2778146635  SOLV      2224            0.0000000000
      6785      2235  TIP3      H1            -11.0467303985      -13.9502857466      -16.5693346635  SOLV      2224            0.0000000000
      6786      2235  TIP3      H2             -9.9171403985      -14.9051357466      -16.8921046635  SOLV      2224            0.0000000000
      6787      2236  TIP3      OH2           -11.5356003985      -14.5895057466       -4.7897446635  SOLV      2225            0.0000000000
      6788      2236  TIP3      H1            -12.0982203985      -15.2943457466       -4.4689646635  SOLV      2225            0.0000000000
      6789      2236  TIP3      H2            -10.7092603985      -14.7103157466       -4.3219846635  SOLV      2225            0.0000000000
      6790      2237  TIP3      OH2            -9.6329903985      -15.3191057466      -13.4638446635  SOLV      2226            0.0000000000
      6791      2237  TIP3      H1             -9.8285403985      -14.7134257466      -14.1787846635  SOLV      2226            0.0000000000
      6792      2237  TIP3      H2             -9.4517303985      -16.1525857466      -13.8982146635  SOLV      2226            0.0000000000
      6793      2238  TIP3      OH2           -18.4201703985      -15.0818357466       -8.1396946635  SOLV      2227            0.0000000000
      6794      2238  TIP3      H1            -18.4582303985      -14.6816757466       -7.2709846635  SOLV      2227            0.0000000000
      6795      2238  TIP3      H2            -18.9110603985      -15.8985957466       -8.0494046635  SOLV      2227            0.0000000000
      6796      2239  TIP3      OH2           -15.0544303985      -17.7076057466      -21.3410946635  SOLV      2228            0.0000000000
      6797      2239  TIP3      H1            -15.4853603985      -18.1525957466      -20.6113546635  SOLV      2228            0.0000000000
      6798      2239  TIP3      H2            -15.7725603985      -17.3359757466      -21.8533446635  SOLV      2228            0.0000000000
      6799      2240  TIP3      OH2           -21.8120903985      -17.9656557466      -14.2892246635  SOLV      2229            0.0000000000
      6800      2240  TIP3      H1            -21.1813203985      -17.9944457466      -13.5698346635  SOLV      2229            0.0000000000
      6801      2240  TIP3      H2            -21.3626603985      -18.3907857466      -15.0196346635  SOLV      2229            0.0000000000
      6802      2241  TIP3      OH2           -20.5378803985      -17.2194557466      -18.8651846635  SOLV      2230            0.0000000000
      6803      2241  TIP3      H1            -20.0637103985      -16.6284657466      -19.4500946635  SOLV      2230            0.0000000000
      6804      2241  TIP3      H2            -21.2552403985      -16.6891657466      -18.5181746635  SOLV      2230            0.0000000000
      6805      2242  TIP3      OH2           -10.3690703985      -13.6809757466       -8.7926046635  SOLV      2231            0.0000000000
      6806      2242  TIP3      H1            -10.0455903985      -14.3120057466       -9.4355546635  SOLV      2231            0.0000000000
      6807      2242  TIP3      H2            -10.8091403985      -14.2157557466       -8.1318646635  SOLV      2231            0.0000000000
      6808      2243  TIP3      OH2           -13.5917803985      -17.7534257466      -14.0084846635  SOLV      2232            0.0000000000
      6809      2243  TIP3      H1            -14.5026703985      -17.6967457466      -13.7198846635  SOLV      2232            0.0000000000
      6810      2243  TIP3      H2            -13.0864903985      -17.8138757466      -13.1977646635  SOLV      2232            0.0000000000
      6811      2244  TIP3      OH2           -18.7634403985      -16.1247957466      -15.1817246635  SOLV      2233            0.0000000000
      6812      2244  TIP3      H1            -19.6526403985      -16.0252457466      -15.5217646635  SOLV      2233            0.0000000000
      6813      2244  TIP3      H2            -18.4669503985      -16.9664957466      -15.5279346635  SOLV      2233            0.0000000000
      6814      2245  TIP3      OH2           -15.1102603985      -16.1245357466      -17.5252646635  SOLV      2234            0.0000000000
      6815      2245  TIP3      H1            -14.1787103985      -15.9955357466      -17.3469546635  SOLV      2234            0.0000000000
      6816      2245  TIP3      H2            -15.3252303985      -15.4551057466      -18.1747946635  SOLV      2234            0.0000000000
      6817      2246  TIP3      OH2            -9.1865903985      -18.5187957466      -10.7443046635  SOLV      2235            0.0000000000
      6818      2246  TIP3      H1             -9.8634303985      -18.3874857466      -10.0803346635  SOLV      2235            0.0000000000
      6819      2246  TIP3      H2             -9.6721003985      -18.6738457466      -11.5545346635  SOLV      2235            0.0000000000
      6820      2247  TIP3      OH2            -5.8990803985       -2.8472557466       -4.4675446635  SOLV      2236            0.0000000000
      6821      2247  TIP3      H1             -5.6992103985       -2.4230657466       -5.3020146635  SOLV      2236            0.0000000000
      6822      2247  TIP3      H2             -5.2437103985       -2.5034357466       -3.8605046635  SOLV      2236            0.0000000000
      6823      2248  TIP3      OH2           -18.3011003985      -10.3731257466       -4.8594946635  SOLV      2237            0.0000000000
      6824      2248  TIP3      H1            -17.5688603985      -10.1185357466       -4.2980446635  SOLV      2237            0.0000000000
      6825      2248  TIP3      H2            -19.0812303985      -10.1685857466       -4.3439546635  SOLV      2237            0.0000000000
      6826      2249  TIP3      OH2           -12.2718103985      -14.9661257466      -12.1215246635  SOLV      2238            0.0000000000
      6827      2249  TIP3      H1            -11.7074703985      -15.5124657466      -12.6685646635  SOLV      2238            0.0000000000
      6828      2249  TIP3      H2            -12.4194703985      -15.4879357466      -11.3327646635  SOLV      2238            0.0000000000
      6829      2250  TIP3      OH2           -17.2698403985      -18.8295157466      -15.7030446635  SOLV      2239            0.0000000000
      6830      2250  TIP3      H1            -17.5868903985      -19.7319857466      -15.7385046635  SOLV      2239            0.0000000000
      6831      2250  TIP3      H2            -16.4884303985      -18.8277757466      -16.2558846635  SOLV      2239            0.0000000000
      6832      2251  TIP3      OH2           -13.6452203985      -16.5775157466       -9.7074846635  SOLV      2240            0.0000000000
      6833      2251  TIP3      H1            -14.4806903985      -16.1235657466       -9.5972446635  SOLV      2240            0.0000000000
      6834      2251  TIP3      H2            -13.1211603985      -16.3016657466       -8.9554946635  SOLV      2240            0.0000000000
      6835      2252  TIP3      OH2           -13.1009603985      -10.3647457466      -18.0228446635  SOLV      2241            0.0000000000
      6836      2252  TIP3      H1            -13.8458603985      -10.8722157466      -18.3450546635  SOLV      2241            0.0000000000
      6837      2252  TIP3      H2            -13.2352403985      -10.3159457466      -17.0763646635  SOLV      2241            0.0000000000
      6838      2253  TIP3      OH2            -5.9510703985      -11.2319257466       -9.2360846635  SOLV      2242            0.0000000000
      6839      2253  TIP3      H1             -5.3091903985      -10.7752957466       -9.7798646635  SOLV      2242            0.0000000000
      6840      2253  TIP3      H2             -6.7813803985      -11.1186857466       -9.6986746635  SOLV      2242            0.0000000000
      6841      2254  TIP3      OH2            -9.2032803985      -17.5507557466      -19.8235846635  SOLV      2243            0.0000000000
      6842      2254  TIP3      H1            -10.1418603985      -17.4391957466      -19.9747046635  SOLV      2243            0.0000000000
      6843      2254  TIP3      H2             -8.9060703985      -16.6940657466      -19.5170146635  SOLV      2243            0.0000000000
      6844      2255  TIP3      OH2           -11.5817503985      -10.1804157466       -6.7859346635  SOLV      2244            0.0000000000
      6845      2255  TIP3      H1            -11.9271403985      -10.5621757466       -5.9789746635  SOLV      2244            0.0000000000
      6846      2255  TIP3      H2            -11.7817403985       -9.2470557466       -6.7146446635  SOLV      2244            0.0000000000
      6847      2256  TIP3      OH2            -8.4849303985      -15.6834857466      -18.1628446635  SOLV      2245            0.0000000000
      6848      2256  TIP3      H1             -7.5930303985      -15.8209857466      -17.8437246635  SOLV      2245            0.0000000000
      6849      2256  TIP3      H2             -8.4285703985      -14.8928757466      -18.6994946635  SOLV      2245            0.0000000000
      6850      2257  TIP3      OH2           -17.9761303985      -11.0697457466      -12.2530546635  SOLV      2246            0.0000000000
      6851      2257  TIP3      H1            -17.2314103985      -11.0721757466      -12.8544046635  SOLV      2246            0.0000000000
      6852      2257  TIP3      H2            -17.8984703985      -11.8933657466      -11.7715446635  SOLV      2246            0.0000000000
      6853      2258  TIP3      OH2           -10.9755503985       -8.9063157466      -18.9973846635  SOLV      2247            0.0000000000
      6854      2258  TIP3      H1            -11.2707103985       -8.0795257466      -18.6159046635  SOLV      2247            0.0000000000
      6855      2258  TIP3      H2            -11.6785503985       -9.5256257466      -18.8012446635  SOLV      2247            0.0000000000
      6856      2259  TIP3      OH2           -20.9681603985      -12.6090557466       -6.9382046635  SOLV      2248            0.0000000000
      6857      2259  TIP3      H1            -20.7453003985      -13.0270957466       -6.1064546635  SOLV      2248            0.0000000000
      6858      2259  TIP3      H2            -21.5701503985      -13.2215557466       -7.3609246635  SOLV      2248            0.0000000000
      6859      2260  TIP3      OH2           -13.9516703985      -13.0920657466       -4.7252346635  SOLV      2249            0.0000000000
      6860      2260  TIP3      H1            -14.2475903985      -13.2577657466       -5.6203246635  SOLV      2249            0.0000000000
      6861      2260  TIP3      H2            -13.0201503985      -13.3120357466       -4.7358446635  SOLV      2249            0.0000000000
      6862      2261  TIP3      OH2            -9.3313903985       -7.7188657466       -6.8354346635  SOLV      2250            0.0000000000
      6863      2261  TIP3      H1            -10.2319603985       -7.5356057466       -7.1030446635  SOLV      2250            0.0000000000
      6864      2261  TIP3      H2             -9.2972803985       -7.4599357466       -5.9145546635  SOLV      2250            0.0000000000
      6865      2262  TIP3      OH2            -3.6000603985      -15.4740757466      -18.4681746635  SOLV      2251            0.0000000000
      6866      2262  TIP3      H1             -4.1544303985      -15.8702757466      -19.1404246635  SOLV      2251            0.0000000000
      6867      2262  TIP3      H2             -3.4997003985      -14.5635557466      -18.7458446635  SOLV      2251            0.0000000000
      6868      2263  TIP3      OH2            -3.6368603985       -9.6739057466       -5.6310246635  SOLV      2252            0.0000000000
      6869      2263  TIP3      H1             -4.4880103985       -9.4355257466       -5.9983846635  SOLV      2252            0.0000000000
      6870      2263  TIP3      H2             -3.0465203985       -9.6905857466       -6.3843146635  SOLV      2252            0.0000000000
      6871      2264  TIP3      OH2            -5.3048903985       -6.6880357466      -18.0029646635  SOLV      2253            0.0000000000
      6872      2264  TIP3      H1             -5.6777803985       -7.5136557466      -17.6939046635  SOLV      2253            0.0000000000
      6873      2264  TIP3      H2             -5.0275403985       -6.8710957466      -18.9006246635  SOLV      2253            0.0000000000
      6874      2265  TIP3      OH2            -8.1445003985      -11.8800857466      -10.9817746635  SOLV      2254            0.0000000000
      6875      2265  TIP3      H1             -9.0728103985      -12.1118957466      -11.0088446635  SOLV      2254            0.0000000000
      6876      2265  TIP3      H2             -7.6933903985      -12.6571057466      -11.3118946635  SOLV      2254            0.0000000000
      6877      2266  TIP3      OH2           -15.6011903985       -7.5519257466      -14.8489046635  SOLV      2255            0.0000000000
      6878      2266  TIP3      H1            -15.0739703985       -6.7784857466      -15.0490246635  SOLV      2255            0.0000000000
      6879      2266  TIP3      H2            -16.4813403985       -7.3270057466      -15.1505046635  SOLV      2255            0.0000000000
      6880      2267  TIP3      OH2           -19.8464203985      -12.6895157466      -20.2616646635  SOLV      2256            0.0000000000
      6881      2267  TIP3      H1            -19.2304303985      -12.0627957466      -19.8821846635  SOLV      2256            0.0000000000
      6882      2267  TIP3      H2            -20.7081603985      -12.3735357466      -19.9900146635  SOLV      2256            0.0000000000
      6883      2268  TIP3      OH2           -14.1739603985       -9.8889357466      -15.2724746635  SOLV      2257            0.0000000000
      6884      2268  TIP3      H1            -14.4149603985       -8.9634957466      -15.2309446635  SOLV      2257            0.0000000000
      6885      2268  TIP3      H2            -14.9146003985      -10.3478057466      -14.8760846635  SOLV      2257            0.0000000000
      6886      2269  TIP3      OH2           -13.6593003985       -5.7395757466       -8.9573646635  SOLV      2258            0.0000000000
      6887      2269  TIP3      H1            -13.2968303985       -4.8850157466       -9.1909246635  SOLV      2258            0.0000000000
      6888      2269  TIP3      H2            -13.1277803985       -6.0314157466       -8.2167346635  SOLV      2258            0.0000000000
      6889      2270  TIP3      OH2           -15.4908803985       -4.8671757466      -15.7272546635  SOLV      2259            0.0000000000
      6890      2270  TIP3      H1            -16.4408303985       -4.7614357466      -15.6759246635  SOLV      2259            0.0000000000
      6891      2270  TIP3      H2            -15.1390703985       -4.0464357466      -15.3825046635  SOLV      2259            0.0000000000
      6892      2271  TIP3      OH2           -10.1152203985       -9.6405057466       -9.2568046635  SOLV      2260            0.0000000000
      6893      2271  TIP3      H1            -10.5410903985       -9.8683357466       -8.4304046635  SOLV      2260            0.0000000000
      6894      2271  TIP3      H2             -9.5346403985      -10.3793257466       -9.4392746635  SOLV      2260            0.0000000000
      6895      2272  TIP3      OH2            -7.9123303985       -8.7114557466      -20.1829046635  SOLV      2261            0.0000000000
      6896      2272  TIP3      H1             -7.5590203985       -9.0914757466      -19.3785546635  SOLV      2261            0.0000000000
      6897      2272  TIP3      H2             -8.8609803985       -8.8049757466      -20.0959746635  SOLV      2261            0.0000000000
      6898      2273  TIP3      OH2            -7.4568003985       -5.0885557466       -6.7873246635  SOLV      2262            0.0000000000
      6899      2273  TIP3      H1             -8.0584803985       -5.6442657466       -7.2826946635  SOLV      2262            0.0000000000
      6900      2273  TIP3      H2             -7.1754303985       -4.4215757466       -7.4135846635  SOLV      2262            0.0000000000
      6901      2274  TIP3      OH2            -3.4088903985       -4.2322057466      -19.9818846635  SOLV      2263            0.0000000000
      6902      2274  TIP3      H1             -2.6651003985       -3.6461557466      -20.1217246635  SOLV      2263            0.0000000000
      6903      2274  TIP3      H2             -4.1030803985       -3.6636257466      -19.6486446635  SOLV      2263            0.0000000000
      6904      2275  TIP3      OH2           -19.3342103985      -17.8557857466       -7.3800646635  SOLV      2264            0.0000000000
      6905      2275  TIP3      H1            -20.2269803985      -17.5172457466       -7.4476646635  SOLV      2264            0.0000000000
      6906      2275  TIP3      H2            -19.4329303985      -18.7111757466       -6.9619846635  SOLV      2264            0.0000000000
      6907      2276  TIP3      OH2            -7.0464003985      -10.0392557466      -17.9561146635  SOLV      2265            0.0000000000
      6908      2276  TIP3      H1             -7.3236403985      -10.7673257466      -17.4000046635  SOLV      2265            0.0000000000
      6909      2276  TIP3      H2             -6.1191003985       -9.9200557466      -17.7508546635  SOLV      2265            0.0000000000
      6910      2277  TIP3      OH2           -19.6830103985       -6.0513457466       -8.9451246635  SOLV      2266            0.0000000000
      6911      2277  TIP3      H1            -19.4659803985       -6.9831057466       -8.9761546635  SOLV      2266            0.0000000000
      6912      2277  TIP3      H2            -19.4366603985       -5.7768457466       -8.0618446635  SOLV      2266            0.0000000000
      6913      2278  TIP3      OH2           -13.8215503985       -7.5998457466      -21.7359046635  SOLV      2267            0.0000000000
      6914      2278  TIP3      H1            -13.5825703985       -8.3480357466      -22.2830146635  SOLV      2267            0.0000000000
      6915      2278  TIP3      H2            -14.0904203985       -7.9876757466      -20.9031246635  SOLV      2267            0.0000000000
      6916      2279  TIP3      OH2           -14.8844903985       -8.0294657466      -19.2796446635  SOLV      2268            0.0000000000
      6917      2279  TIP3      H1            -14.7376903985       -8.5494857466      -18.4895546635  SOLV      2268            0.0000000000
      6918      2279  TIP3      H2            -14.8873203985       -7.1227057466      -18.9730546635  SOLV      2268            0.0000000000
      6919      2280  TIP3      OH2           -18.4313803985      -10.7771357466      -18.7691046635  SOLV      2269            0.0000000000
      6920      2280  TIP3      H1            -19.1174503985      -10.4248857466      -18.2021346635  SOLV      2269            0.0000000000
      6921      2280  TIP3      H2            -17.9085903985      -10.0141757466      -19.0156746635  SOLV      2269            0.0000000000
      6922      2281  TIP3      OH2           -10.5998703985      -18.1147557466       -8.4902046635  SOLV      2270            0.0000000000
      6923      2281  TIP3      H1             -9.9010803985      -18.0408857466       -7.8402346635  SOLV      2270            0.0000000000
      6924      2281  TIP3      H2            -10.9807303985      -18.9792557466       -8.3359146635  SOLV      2270            0.0000000000
      6925      2282  TIP3      OH2            -9.8153803985      -18.4625857466      -17.3929746635  SOLV      2271            0.0000000000
      6926      2282  TIP3      H1             -9.5955503985      -17.9910457466      -18.1964346635  SOLV      2271            0.0000000000
      6927      2282  TIP3      H2             -9.2569803985      -18.0683257466      -16.7229146635  SOLV      2271            0.0000000000
      6928      2283  TIP3      OH2           -12.1467703985       -6.3321057466      -18.5302246635  SOLV      2272            0.0000000000
      6929      2283  TIP3      H1            -12.9631603985       -5.8351357466      -18.4777946635  SOLV      2272            0.0000000000
      6930      2283  TIP3      H2            -11.6171403985       -5.8567557466      -19.1703446635  SOLV      2272            0.0000000000
      6931      2284  TIP3      OH2           -12.6153903985      -16.7347057466      -16.5581346635  SOLV      2273            0.0000000000
      6932      2284  TIP3      H1            -11.8031303985      -16.2303857466      -16.5119646635  SOLV      2273            0.0000000000
      6933      2284  TIP3      H2            -12.8600903985      -16.8797357466      -15.6441746635  SOLV      2273            0.0000000000
      6934      2285  TIP3      OH2           -12.0797503985      -15.7484357466       -7.3734746635  SOLV      2274            0.0000000000
      6935      2285  TIP3      H1            -11.9607203985      -15.1748957466       -6.6164346635  SOLV      2274            0.0000000000
      6936      2285  TIP3      H2            -11.4242903985      -16.4364957466       -7.2586946635  SOLV      2274            0.0000000000
      6937      2286  TIP3      OH2           -11.7317203985      -19.6534057466      -15.6200246635  SOLV      2275            0.0000000000
      6938      2286  TIP3      H1            -12.0783703985      -19.0363457466      -14.9755946635  SOLV      2275            0.0000000000
      6939      2286  TIP3      H2            -11.0730303985      -19.1528357466      -16.1014746635  SOLV      2275            0.0000000000
      6940      2287  TIP3      OH2           -14.8084603985       -5.2883857466      -18.5485346635  SOLV      2276            0.0000000000
      6941      2287  TIP3      H1            -14.6475903985       -4.4886357466      -19.0492746635  SOLV      2276            0.0000000000
      6942      2287  TIP3      H2            -15.0056803985       -4.9817857466      -17.6634746635  SOLV      2276            0.0000000000
      6943      2288  TIP3      OH2           -16.0740203985      -18.5904657466      -18.9327746635  SOLV      2277            0.0000000000
      6944      2288  TIP3      H1            -16.1575403985      -17.7021557466      -18.5861346635  SOLV      2277            0.0000000000
      6945      2288  TIP3      H2            -15.1839903985      -18.8557957466      -18.7010946635  SOLV      2277            0.0000000000
      6946      2289  TIP3      OH2            -5.8751703985      -17.8414057466       -6.5385046635  SOLV      2278            0.0000000000
      6947      2289  TIP3      H1             -6.7915903985      -17.5792357466       -6.6261346635  SOLV      2278            0.0000000000
      6948      2289  TIP3      H2             -5.5396703985      -17.8445057466       -7.4349746635  SOLV      2278            0.0000000000
      6949      2290  TIP3      OH2            -7.2730703985      -14.0913057466      -12.4427746635  SOLV      2279            0.0000000000
      6950      2290  TIP3      H1             -8.0706303985      -14.5062857466      -12.7712746635  SOLV      2279            0.0000000000
      6951      2290  TIP3      H2             -6.8279603985      -14.7819357466      -11.9517246635  SOLV      2279            0.0000000000
      6952      2291  TIP3      OH2           -17.8154903985       -8.1632457466      -19.8723246635  SOLV      2280            0.0000000000
      6953      2291  TIP3      H1            -17.2233403985       -7.4637657466      -19.5960846635  SOLV      2280            0.0000000000
      6954      2291  TIP3      H2            -17.3561903985       -8.5962957466      -20.5918646635  SOLV      2280            0.0000000000
      6955      2292  TIP3      OH2           -19.4995703985      -15.4989457466      -20.7563846635  SOLV      2281            0.0000000000
      6956      2292  TIP3      H1            -19.5443103985      -14.5596357466      -20.5776846635  SOLV      2281            0.0000000000
      6957      2292  TIP3      H2            -20.3872503985      -15.7344557466      -21.0261746635  SOLV      2281            0.0000000000
      6958      2293  TIP3      OH2            -6.1866103985       -4.8350557466      -10.8204246635  SOLV      2282            0.0000000000
      6959      2293  TIP3      H1             -6.3421803985       -4.1566157466      -11.4774946635  SOLV      2282            0.0000000000
      6960      2293  TIP3      H2             -5.2539703985       -4.7631257466      -10.6173646635  SOLV      2282            0.0000000000
      6961      2294  TIP3      OH2           -18.6913703985      -20.7172857466      -12.0832846635  SOLV      2283            0.0000000000
      6962      2294  TIP3      H1            -18.9203903985      -20.6580357466      -13.0107846635  SOLV      2283            0.0000000000
      6963      2294  TIP3      H2            -19.1340303985      -21.5087357466      -11.7768746635  SOLV      2283            0.0000000000
      6964      2295  TIP3      OH2           -19.7610403985       -6.7765757466      -15.9227046635  SOLV      2284            0.0000000000
      6965      2295  TIP3      H1            -20.5931803985       -6.3043057466      -15.8955646635  SOLV      2284            0.0000000000
      6966      2295  TIP3      H2            -19.2152103985       -6.2668157466      -16.5213946635  SOLV      2284            0.0000000000
      6967      2296  TIP3      OH2           -20.4726703985       -4.1642057466       -4.5929046635  SOLV      2285            0.0000000000
      6968      2296  TIP3      H1            -19.9324503985       -4.3808057466       -3.8329846635  SOLV      2285            0.0000000000
      6969      2296  TIP3      H2            -20.9538703985       -4.9696057466       -4.7826546635  SOLV      2285            0.0000000000
      6970      2297  TIP3      OH2           -15.8753303985       -5.2447657466       -2.9724846635  SOLV      2286            0.0000000000
      6971      2297  TIP3      H1            -15.1076103985       -5.7036857466       -2.6315646635  SOLV      2286            0.0000000000
      6972      2297  TIP3      H2            -15.8967103985       -5.4707857466       -3.9023646635  SOLV      2286            0.0000000000
      6973      2298  TIP3      OH2           -11.7833703985       -5.7367057466      -21.5973046635  SOLV      2287            0.0000000000
      6974      2298  TIP3      H1            -12.4272703985       -6.3678457466      -21.2759346635  SOLV      2287            0.0000000000
      6975      2298  TIP3      H2            -11.0215403985       -6.2679057466      -21.8289546635  SOLV      2287            0.0000000000
      6976      2299  TIP3      OH2            -9.2984603985       -6.8646557466       -4.2433346635  SOLV      2288            0.0000000000
      6977      2299  TIP3      H1             -9.6495103985       -7.7213557466       -4.0002946635  SOLV      2288            0.0000000000
      6978      2299  TIP3      H2             -8.5721403985       -6.7219857466       -3.6364346635  SOLV      2288            0.0000000000
      6979      2300  TIP3      OH2            -7.1790803985       -5.9197157466      -21.3635046635  SOLV      2289            0.0000000000
      6980      2300  TIP3      H1             -6.8960403985       -6.7141957466      -20.9108146635  SOLV      2289            0.0000000000
      6981      2300  TIP3      H2             -6.4392903985       -5.6866157466      -21.9243946635  SOLV      2289            0.0000000000
      6982      2301  TIP3      OH2           -20.5657203985      -10.3537957466       -3.6384746635  SOLV      2290            0.0000000000
      6983      2301  TIP3      H1            -20.4216703985      -11.2557257466       -3.9248046635  SOLV      2290            0.0000000000
      6984      2301  TIP3      H2            -21.3379803985      -10.0675857466       -4.1262446635  SOLV      2290            0.0000000000
      6985      2302  TIP3      OH2           -16.2243503985      -10.0102257466      -21.5060146635  SOLV      2291            0.0000000000
      6986      2302  TIP3      H1            -16.1599403985      -10.8042657466      -20.9753746635  SOLV      2291            0.0000000000
      6987      2302  TIP3      H2            -15.5714303985      -10.1289457466      -22.1958146635  SOLV      2291            0.0000000000
      6988      2303  TIP3      OH2           -13.9101103985      -10.3839857466       -4.2058346635  SOLV      2292            0.0000000000
      6989      2303  TIP3      H1            -14.2387303985      -10.1131757466       -5.0630946635  SOLV      2292            0.0000000000
      6990      2303  TIP3      H2            -13.7582903985      -11.3250057466       -4.2933346635  SOLV      2292            0.0000000000
      6991      2304  TIP3      OH2           -10.8720103985       -8.9630557466      -21.7702146635  SOLV      2293            0.0000000000
      6992      2304  TIP3      H1            -11.1406003985       -8.7828457466      -20.8693246635  SOLV      2293            0.0000000000
      6993      2304  TIP3      H2            -11.0784503985       -9.8884357466      -21.9016346635  SOLV      2293            0.0000000000
      6994      2305  TIP3      OH2            -8.1755903985      -10.4682557466       -6.8226046635  SOLV      2294            0.0000000000
      6995      2305  TIP3      H1             -7.4301103985       -9.8798857466       -6.9422046635  SOLV      2294            0.0000000000
      6996      2305  TIP3      H2             -8.9329103985       -9.8862857466       -6.7592946635  SOLV      2294            0.0000000000
      6997      2306  TIP3      OH2           -19.7330703985      -13.1534657466       -4.2185446635  SOLV      2295            0.0000000000
      6998      2306  TIP3      H1            -19.3249503985      -14.0108057466       -4.3394846635  SOLV      2295            0.0000000000
      6999      2306  TIP3      H2            -19.9933103985      -13.1393357466       -3.2975146635  SOLV      2295            0.0000000000
      7000      2307  TIP3      OH2           -15.7860403985      -14.1448957466       -6.8442546635  SOLV      2296            0.0000000000
      7001      2307  TIP3      H1            -16.4044303985      -13.4702357466       -6.5637846635  SOLV      2296            0.0000000000
      7002      2307  TIP3      H2            -15.4419203985      -13.8235057466       -7.6776346635  SOLV      2296            0.0000000000
      7003      2308  TIP3      OH2           -14.0039303985      -13.7944257466      -20.9378946635  SOLV      2297            0.0000000000
      7004      2308  TIP3      H1            -14.1844303985      -13.9493057466      -21.8650646635  SOLV      2297            0.0000000000
      7005      2308  TIP3      H2            -13.0538803985      -13.6865557466      -20.8931046635  SOLV      2297            0.0000000000
      7006      2309  TIP3      OH2           -10.7662203985      -11.6733657466       -3.5667746635  SOLV      2298            0.0000000000
      7007      2309  TIP3      H1             -9.8131003985      -11.5894557466       -3.5941746635  SOLV      2298            0.0000000000
      7008      2309  TIP3      H2            -10.9267603985      -12.3851857466       -2.9472846635  SOLV      2298            0.0000000000
      7009      2310  TIP3      OH2            -4.6141003985      -11.4400057466      -21.4920846635  SOLV      2299            0.0000000000
      7010      2310  TIP3      H1             -4.8876203985      -11.8644557466      -22.3052546635  SOLV      2299            0.0000000000
      7011      2310  TIP3      H2             -4.5746903985      -10.5085557466      -21.7090446635  SOLV      2299            0.0000000000
      7012      2311  TIP3      OH2           -15.0341003985      -18.4202357466       -8.2692046635  SOLV      2300            0.0000000000
      7013      2311  TIP3      H1            -14.4983503985      -17.9685657466       -8.9212746635  SOLV      2300            0.0000000000
      7014      2311  TIP3      H2            -15.8861403985      -18.5282557466       -8.6917946635  SOLV      2300            0.0000000000
      7015      2312  TIP3      OH2           -13.4522603985      -12.9806157466       -8.0296846635  SOLV      2301            0.0000000000
      7016      2312  TIP3      H1            -12.7017803985      -13.1368657466       -8.6029046635  SOLV      2301            0.0000000000
      7017      2312  TIP3      H2            -13.7914303985      -12.1289557466       -8.3051346635  SOLV      2301            0.0000000000
      7018      2313  TIP3      OH2            -9.0366403985      -15.1654357466       -3.0011546635  SOLV      2302            0.0000000000
      7019      2313  TIP3      H1             -8.8445103985      -16.0964957466       -3.1127046635  SOLV      2302            0.0000000000
      7020      2313  TIP3      H2             -8.1790103985      -14.7404857466       -3.0116146635  SOLV      2302            0.0000000000
      7021      2314  TIP3      OH2            -7.7199203985      -12.3769157466       -4.9238846635  SOLV      2303            0.0000000000
      7022      2314  TIP3      H1             -8.0014203985      -11.6674557466       -5.5015046635  SOLV      2303            0.0000000000
      7023      2314  TIP3      H2             -6.7774903985      -12.4496157466       -5.0747646635  SOLV      2303            0.0000000000
      7024      2315  TIP3      OH2           -14.2285503985      -20.9636657466       -7.8378446635  SOLV      2304            0.0000000000
      7025      2315  TIP3      H1            -14.3265903985      -20.0173457466       -7.9432246635  SOLV      2304            0.0000000000
      7026      2315  TIP3      H2            -14.9709303985      -21.3362857466       -8.3134946635  SOLV      2304            0.0000000000
      7027      2316  TIP3      OH2           -12.9645003985      -16.6421257466       -4.2740046635  SOLV      2305            0.0000000000
      7028      2316  TIP3      H1            -13.1999603985      -16.8614557466       -3.3725146635  SOLV      2305            0.0000000000
      7029      2316  TIP3      H2            -13.7478103985      -16.8490057466       -4.7837546635  SOLV      2305            0.0000000000
      7030      2317  TIP3      OH2           -10.2488403985      -17.5147757466       -5.1986546635  SOLV      2306            0.0000000000
      7031      2317  TIP3      H1            -11.1963003985      -17.4828057466       -5.0663246635  SOLV      2306            0.0000000000
      7032      2317  TIP3      H2             -9.9361703985      -18.1400657466       -4.5448346635  SOLV      2306            0.0000000000
      7033      2318  TIP3      OH2            -8.6146903985      -18.8806657466       -3.1934646635  SOLV      2307            0.0000000000
      7034      2318  TIP3      H1             -8.7115103985      -19.8329357466       -3.1992746635  SOLV      2307            0.0000000000
      7035      2318  TIP3      H2             -8.9363803985      -18.6119857466       -2.3329146635  SOLV      2307            0.0000000000
      7036      2319  TIP3      OH2           -14.0067403985      -21.6699257466       -5.1665646635  SOLV      2308            0.0000000000
      7037      2319  TIP3      H1            -13.2949003985      -22.3097057466       -5.1806546635  SOLV      2308            0.0000000000
      7038      2319  TIP3      H2            -14.1077003985      -21.4030957466       -6.0802546635  SOLV      2308            0.0000000000
      7039      2320  TIP3      OH2           -13.6529903985      -19.9870857466       -3.1129346635  SOLV      2309            0.0000000000
      7040      2320  TIP3      H1            -13.7847703985      -20.4627057466       -3.9330846635  SOLV      2309            0.0000000000
      7041      2320  TIP3      H2            -14.2522503985      -19.2427257466       -3.1682246635  SOLV      2309            0.0000000000
      7042      2321  TIP3      OH2           -14.1067603985       -3.1040557466      -19.9365346635  SOLV      2310            0.0000000000
      7043      2321  TIP3      H1            -13.1736903985       -2.9461857466      -19.7926946635  SOLV      2310            0.0000000000
      7044      2321  TIP3      H2            -14.3708803985       -2.4287557466      -20.5613846635  SOLV      2310            0.0000000000
      7045      2322  TIP3      OH2           -21.8892103985       -3.0748257466      -15.3763346635  SOLV      2311            0.0000000000
      7046      2322  TIP3      H1            -22.5365003985       -3.5366557466      -15.9092146635  SOLV      2311            0.0000000000
      7047      2322  TIP3      H2            -21.5347503985       -3.7464957466      -14.7937146635  SOLV      2311            0.0000000000
      7048      2323  TIP3      OH2           -21.0192903985       -4.9941257466      -13.5717146635  SOLV      2312            0.0000000000
      7049      2323  TIP3      H1            -21.3536103985       -5.8743957466      -13.3996946635  SOLV      2312            0.0000000000
      7050      2323  TIP3      H2            -20.7970503985       -4.6486257466      -12.7071546635  SOLV      2312            0.0000000000
      7051      2324  TIP3      OH2            -3.4708103985       -4.1844857466      -10.5912346635  SOLV      2313            0.0000000000
      7052      2324  TIP3      H1             -3.4921403985       -3.9996457466       -9.6522946635  SOLV      2313            0.0000000000
      7053      2324  TIP3      H2             -2.7801903985       -3.6160857466      -10.9320946635  SOLV      2313            0.0000000000
      7054      2325  TIP3      OH2            -3.9075203985       -4.6173757466       -7.6693246635  SOLV      2314            0.0000000000
      7055      2325  TIP3      H1             -4.3946503985       -5.3529657466       -8.0405846635  SOLV      2314            0.0000000000
      7056      2325  TIP3      H2             -3.3582503985       -5.0109857466       -6.9913846635  SOLV      2314            0.0000000000
      7057      2326  TIP3      OH2            -5.4567903985       -8.8275657466       -3.0312946635  SOLV      2315            0.0000000000
      7058      2326  TIP3      H1             -6.3226803985       -8.9325957466       -2.6370646635  SOLV      2315            0.0000000000
      7059      2326  TIP3      H2             -5.0802003985       -8.0692357466       -2.5848246635  SOLV      2315            0.0000000000
      7060      2327  TIP3      OH2            -4.1558203985      -10.5711957466      -17.5170446635  SOLV      2316            0.0000000000
      7061      2327  TIP3      H1             -3.3056803985      -10.1501057466      -17.3898846635  SOLV      2316            0.0000000000
      7062      2327  TIP3      H2             -4.1503103985      -11.3111857466      -16.9099046635  SOLV      2316            0.0000000000
      7063      2328  TIP3      OH2            -3.7612603985      -12.5174557466      -15.6934746635  SOLV      2317            0.0000000000
      7064      2328  TIP3      H1             -4.4878003985      -12.9971957466      -15.2957146635  SOLV      2317            0.0000000000
      7065      2328  TIP3      H2             -3.1799303985      -12.3119857466      -14.9613146635  SOLV      2317            0.0000000000
      7066      2329  TIP3      OH2            -4.0021403985       -9.7327057466      -10.7457146635  SOLV      2318            0.0000000000
      7067      2329  TIP3      H1             -3.1687203985      -10.1107057466      -11.0263546635  SOLV      2318            0.0000000000
      7068      2329  TIP3      H2             -3.8901103985       -8.7895857466      -10.8648046635  SOLV      2318            0.0000000000
      7069      2330  TIP3      OH2            -5.5159103985       -6.8549557466       -8.4388746635  SOLV      2319            0.0000000000
      7070      2330  TIP3      H1             -6.1633803985       -6.5298057466       -7.8133546635  SOLV      2319            0.0000000000
      7071      2330  TIP3      H2             -6.0335103985       -7.2951857466       -9.1130446635  SOLV      2319            0.0000000000
      7072      2331  TIP3      OH2            -3.4929503985      -12.6166057466      -19.3023446635  SOLV      2320            0.0000000000
      7073      2331  TIP3      H1             -4.0148403985      -12.2601957466      -20.0212546635  SOLV      2320            0.0000000000
      7074      2331  TIP3      H2             -3.5260303985      -11.9418257466      -18.6242546635  SOLV      2320            0.0000000000
      7075      2332  TIP3      OH2            -5.1440503985      -15.3770457466      -20.7516346635  SOLV      2321            0.0000000000
      7076      2332  TIP3      H1             -5.0476103985      -14.7103457466      -21.4316646635  SOLV      2321            0.0000000000
      7077      2332  TIP3      H2             -5.2840903985      -16.1924157466      -21.2330846635  SOLV      2321            0.0000000000
      7078      2333  TIP3      OH2            -5.9745803985      -13.9968057466      -15.1306046635  SOLV      2322            0.0000000000
      7079      2333  TIP3      H1             -6.1247003985      -14.9419457466      -15.1508246635  SOLV      2322            0.0000000000
      7080      2333  TIP3      H2             -6.3281303985      -13.7156657466      -14.2866946635  SOLV      2322            0.0000000000
      7081      2334  TIP3      OH2           -20.9393403985      -11.9185857466      -11.1202246635  SOLV      2323            0.0000000000
      7082      2334  TIP3      H1            -20.7550503985      -12.0004157466      -12.0559346635  SOLV      2323            0.0000000000
      7083      2334  TIP3      H2            -20.0900503985      -12.0428857466      -10.6965846635  SOLV      2323            0.0000000000
      7084      2335  TIP3      OH2            -5.1182903985      -12.0264757466       -5.4917746635  SOLV      2324            0.0000000000
      7085      2335  TIP3      H1             -4.5355603985      -12.7612457466       -5.3000546635  SOLV      2324            0.0000000000
      7086      2335  TIP3      H2             -4.5543603985      -11.2544457466       -5.4451946635  SOLV      2324            0.0000000000
      7087      2336  TIP3      OH2            -3.6215803985      -14.1238957466       -4.8072346635  SOLV      2325            0.0000000000
      7088      2336  TIP3      H1             -4.4849103985      -14.5026857466       -4.9727646635  SOLV      2325            0.0000000000
      7089      2336  TIP3      H2             -3.0172103985      -14.8624157466       -4.8816546635  SOLV      2325            0.0000000000
      7090      2337  TIP3      OH2            -5.8966703985      -17.9690657466      -21.6340846635  SOLV      2326            0.0000000000
      7091      2337  TIP3      H1             -5.2860903985      -18.3403857466      -20.9972646635  SOLV      2326            0.0000000000
      7092      2337  TIP3      H2             -6.7335203985      -18.3903757466      -21.4380846635  SOLV      2326            0.0000000000
      7093      2338  TIP3      OH2            -6.2641003985      -16.4142257466      -16.6680946635  SOLV      2327            0.0000000000
      7094      2338  TIP3      H1             -5.9843903985      -17.3211857466      -16.5439246635  SOLV      2327            0.0000000000
      7095      2338  TIP3      H2             -5.5049303985      -15.9800757466      -17.0571746635  SOLV      2327            0.0000000000
      7096      2339  TIP3      OH2            -5.6522703985      -15.8324857466      -11.2322046635  SOLV      2328            0.0000000000
      7097      2339  TIP3      H1             -4.7194703985      -15.6204957466      -11.2666046635  SOLV      2328            0.0000000000
      7098      2339  TIP3      H2             -5.8875203985      -15.7312757466      -10.3099046635  SOLV      2328            0.0000000000
      7099      2340  TIP3      OH2            -5.6230803985      -15.0959557466       -8.4562646635  SOLV      2329            0.0000000000
      7100      2340  TIP3      H1             -6.4659503985      -14.8279157466       -8.0902846635  SOLV      2329            0.0000000000
      7101      2340  TIP3      H2             -5.1806503985      -14.2737657466       -8.6671546635  SOLV      2329            0.0000000000
      7102      2341  TIP3      OH2           -21.3418603985      -16.6480857466       -4.9793446635  SOLV      2330            0.0000000000
      7103      2341  TIP3      H1            -20.4223703985      -16.7702557466       -4.7430346635  SOLV      2330            0.0000000000
      7104      2341  TIP3      H2            -21.7914103985      -17.3981157466       -4.5899946635  SOLV      2330            0.0000000000
      7105      2342  TIP3      OH2            -3.3399203985      -21.1159357466       -3.1027646635  SOLV      2331            0.0000000000
      7106      2342  TIP3      H1             -2.9902203985      -21.7695857466       -3.7082946635  SOLV      2331            0.0000000000
      7107      2342  TIP3      H2             -3.1929703985      -20.2785257466       -3.5425046635  SOLV      2331            0.0000000000
      7108      2343  TIP3      OH2            -5.6506203985      -19.1512957466      -16.6198946635  SOLV      2332            0.0000000000
      7109      2343  TIP3      H1             -5.4681203985      -19.6001457466      -15.7943946635  SOLV      2332            0.0000000000
      7110      2343  TIP3      H2             -6.2503303985      -19.7358557466      -17.0834346635  SOLV      2332            0.0000000000
      7111      2344  TIP3      OH2           -20.1206103985      -18.3359257466      -12.0880546635  SOLV      2333            0.0000000000
      7112      2344  TIP3      H1            -19.6754503985      -19.1276757466      -11.7860846635  SOLV      2333            0.0000000000
      7113      2344  TIP3      H2            -19.6543103985      -17.6194057466      -11.6574946635  SOLV      2333            0.0000000000
      7114      2345  TIP3      OH2           -21.8165803985      -15.3366257466      -11.0190346635  SOLV      2334            0.0000000000
      7115      2345  TIP3      H1            -21.3246003985      -15.5575757466      -11.8098346635  SOLV      2334            0.0000000000
      7116      2345  TIP3      H2            -21.4544903985      -14.4962857466      -10.7380846635  SOLV      2334            0.0000000000
      7117      2346  TIP3      OH2            -3.8202003985      -19.0064757466       -4.7536346635  SOLV      2335            0.0000000000
      7118      2346  TIP3      H1             -4.7376303985      -18.7357657466       -4.7892846635  SOLV      2335            0.0000000000
      7119      2346  TIP3      H2             -3.6972603985      -19.5416357466       -5.5376646635  SOLV      2335            0.0000000000
      7120      2347  TIP3      OH2            -3.7840003985      -19.0834857466      -20.0918646635  SOLV      2336            0.0000000000
      7121      2347  TIP3      H1             -3.3717403985      -19.8049157466      -20.5670646635  SOLV      2336            0.0000000000
      7122      2347  TIP3      H2             -3.1023503985      -18.4140257466      -20.0334346635  SOLV      2336            0.0000000000
      7123      2348  TIP3      OH2           -21.5029303985      -19.0787157466      -16.9647946635  SOLV      2337            0.0000000000
      7124      2348  TIP3      H1            -22.4280903985      -18.8700557466      -17.0942446635  SOLV      2337            0.0000000000
      7125      2348  TIP3      H2            -21.0489403985      -18.5946357466      -17.6545646635  SOLV      2337            0.0000000000
      7126      2349  TIP3      OH2            -6.7322103985       -4.0945457466      -15.0190546635  SOLV      2338            0.0000000000
      7127      2349  TIP3      H1             -6.0799203985       -4.4423357466      -15.6271446635  SOLV      2338            0.0000000000
      7128      2349  TIP3      H2             -6.2218303985       -3.6062257466      -14.3730846635  SOLV      2338            0.0000000000
      7129      2350  TIP3      OH2           -21.5393903985      -20.3408157466       -8.6205446635  SOLV      2339            0.0000000000
      7130      2350  TIP3      H1            -22.2043403985      -20.5867857466       -7.9774546635  SOLV      2339            0.0000000000
      7131      2350  TIP3      H2            -21.9822603985      -19.7187757466       -9.1977446635  SOLV      2339            0.0000000000
      7132      2351  TIP3      OH2           -19.3474603985       -7.1654057466       -4.4759646635  SOLV      2340            0.0000000000
      7133      2351  TIP3      H1            -20.1682103985       -6.9907557466       -4.9364946635  SOLV      2340            0.0000000000
      7134      2351  TIP3      H2            -19.5996803985       -7.2389357466       -3.5555246635  SOLV      2340            0.0000000000
      7135      2352  TIP3      OH2           -16.3931703985       -6.1912857466       -8.2175646635  SOLV      2341            0.0000000000
      7136      2352  TIP3      H1            -16.8180603985       -5.3814357466       -8.5001046635  SOLV      2341            0.0000000000
      7137      2352  TIP3      H2            -15.4888903985       -6.1058757466       -8.5195846635  SOLV      2341            0.0000000000
      7138      2353  TIP3      OH2           -12.0820303985       -4.7922857466       -5.2581946635  SOLV      2342            0.0000000000
      7139      2353  TIP3      H1            -11.8972803985       -5.1256757466       -4.3801646635  SOLV      2342            0.0000000000
      7140      2353  TIP3      H2            -11.2355803985       -4.4824257466       -5.5802746635  SOLV      2342            0.0000000000
      7141      2354  TIP3      OH2            -9.7369903985       -3.5063957466       -6.0140546635  SOLV      2343            0.0000000000
      7142      2354  TIP3      H1             -9.0601003985       -4.1391657466       -6.2541346635  SOLV      2343            0.0000000000
      7143      2354  TIP3      H2             -9.4151103985       -3.1053457466       -5.2067246635  SOLV      2343            0.0000000000
      7144      2355  TIP3      OH2            -4.8196103985      -20.9168457466       -6.9345546635  SOLV      2344            0.0000000000
      7145      2355  TIP3      H1             -5.6322603985      -20.5918157466       -7.3220846635  SOLV      2344            0.0000000000
      7146      2355  TIP3      H2             -4.5867603985      -21.6769957466       -7.4676446635  SOLV      2344            0.0000000000
      7147      2356  TIP3      OH2           -18.9915003985       -2.9348957466       -8.1700346635  SOLV      2345            0.0000000000
      7148      2356  TIP3      H1            -19.7118603985       -2.4947957466       -8.6212646635  SOLV      2345            0.0000000000
      7149      2356  TIP3      H2            -19.3571003985       -3.1854257466       -7.3216346635  SOLV      2345            0.0000000000
      7150      2357  TIP3      OH2           -16.5242403985       -3.3345057466       -9.1403146635  SOLV      2346            0.0000000000
      7151      2357  TIP3      H1            -17.3890203985       -3.2626557466       -8.7363046635  SOLV      2346            0.0000000000
      7152      2357  TIP3      H2            -16.5793403985       -2.7877757466       -9.9240646635  SOLV      2346            0.0000000000
      7153      2358  TIP3      OH2           -11.8136803985       -3.4466157466       -9.9647146635  SOLV      2347            0.0000000000
      7154      2358  TIP3      H1            -12.2702803985       -2.9176457466      -10.6188746635  SOLV      2347            0.0000000000
      7155      2358  TIP3      H2            -11.6508803985       -2.8434757466       -9.2394846635  SOLV      2347            0.0000000000
      7156      2359  TIP3      OH2            -9.4860503985       -4.5686557466       -9.0196846635  SOLV      2348            0.0000000000
      7157      2359  TIP3      H1            -10.3906803985       -4.4036357466       -9.2854746635  SOLV      2348            0.0000000000
      7158      2359  TIP3      H2             -9.0571903985       -3.7154357466       -9.0853446635  SOLV      2348            0.0000000000
      7159      2360  TIP3      OH2            -6.8818603985       -2.9987457466       -8.7249046635  SOLV      2349            0.0000000000
      7160      2360  TIP3      H1             -7.0636603985       -2.0828557466       -8.9354146635  SOLV      2349            0.0000000000
      7161      2360  TIP3      H2             -6.7050803985       -3.4090357466       -9.5714446635  SOLV      2349            0.0000000000
      7162      2361  TIP3      OH2           -19.5766903985       -4.3116457466      -11.2598546635  SOLV      2350            0.0000000000
      7163      2361  TIP3      H1            -19.5950903985       -4.7371357466      -10.4026246635  SOLV      2350            0.0000000000
      7164      2361  TIP3      H2            -18.7719003985       -4.6301457466      -11.6686346635  SOLV      2350            0.0000000000
      7165      2362  TIP3      OH2           -17.4353803985       -5.6017757466      -12.6048646635  SOLV      2351            0.0000000000
      7166      2362  TIP3      H1            -17.6543103985       -6.5180357466      -12.4352646635  SOLV      2351            0.0000000000
      7167      2362  TIP3      H2            -16.6111603985       -5.4617357466      -12.1387246635  SOLV      2351            0.0000000000
      7168      2363  TIP3      OH2           -14.8981303985       -5.1318457466      -11.7560646635  SOLV      2352            0.0000000000
      7169      2363  TIP3      H1            -14.6855603985       -6.0199457466      -12.0429746635  SOLV      2352            0.0000000000
      7170      2363  TIP3      H2            -14.8336203985       -5.1660757466      -10.8016646635  SOLV      2352            0.0000000000
      7171      2364  TIP3      OH2           -11.3897603985      -19.4677857466      -12.6117346635  SOLV      2353            0.0000000000
      7172      2364  TIP3      H1            -12.0640803985      -20.0972257466      -12.3561546635  SOLV      2353            0.0000000000
      7173      2364  TIP3      H2            -10.8258403985      -19.9518957466      -13.2149446635  SOLV      2353            0.0000000000
      7174      2365  TIP3      OH2            -6.2470403985      -21.3603857466      -12.4990246635  SOLV      2354            0.0000000000
      7175      2365  TIP3      H1             -5.6432803985      -20.8128457466      -13.0009246635  SOLV      2354            0.0000000000
      7176      2365  TIP3      H2             -7.1168403985      -21.0413457466      -12.7396146635  SOLV      2354            0.0000000000
      7177      2366  TIP3      OH2            -4.5200003985      -20.2215157466      -14.1659346635  SOLV      2355            0.0000000000
      7178      2366  TIP3      H1             -3.9082503985      -20.7359457466      -14.6925746635  SOLV      2355            0.0000000000
      7179      2366  TIP3      H2             -4.1376603985      -19.3443057466      -14.1424946635  SOLV      2355            0.0000000000
      7180      2367  TIP3      OH2           -19.0630103985      -20.8337557466      -14.7897446635  SOLV      2356            0.0000000000
      7181      2367  TIP3      H1            -19.8400303985      -21.0682657466      -15.2971546635  SOLV      2356            0.0000000000
      7182      2367  TIP3      H2            -18.5326503985      -21.6305457466      -14.7809446635  SOLV      2356            0.0000000000
      7183      2368  TIP3      OH2           -20.2266703985      -21.0359457466      -18.9861346635  SOLV      2357            0.0000000000
      7184      2368  TIP3      H1            -19.7876003985      -20.4248957466      -19.5777846635  SOLV      2357            0.0000000000
      7185      2368  TIP3      H2            -20.8604303985      -20.4975357466      -18.5121346635  SOLV      2357            0.0000000000
      7186      2369  TIP3      OH2           -14.4837503985      -20.9070457466      -14.9764346635  SOLV      2358            0.0000000000
      7187      2369  TIP3      H1            -13.6094103985      -20.5186157466      -15.0060046635  SOLV      2358            0.0000000000
      7188      2369  TIP3      H2            -14.6196703985      -21.1222657466      -14.0537146635  SOLV      2358            0.0000000000
      7189      2370  TIP3      OH2            -8.9269103985      -20.8770657466      -13.3272646635  SOLV      2359            0.0000000000
      7190      2370  TIP3      H1             -8.8507503985      -20.7819057466      -14.2766646635  SOLV      2359            0.0000000000
      7191      2370  TIP3      H2             -9.2019903985      -21.7847757466      -13.1983546635  SOLV      2359            0.0000000000
      7192      2371  TIP3      OH2            -7.5736503985      -20.8512857466      -17.6347646635  SOLV      2360            0.0000000000
      7193      2371  TIP3      H1             -8.2765403985      -20.2363657466      -17.8446246635  SOLV      2360            0.0000000000
      7194      2371  TIP3      H2             -8.0185103985      -21.6886157466      -17.5036746635  SOLV      2360            0.0000000000
      7195      2372  TIP3      OH2           -20.3257203985       -5.0877257466      -18.0886246635  SOLV      2361            0.0000000000
      7196      2372  TIP3      H1            -21.0107303985       -5.1258357466      -18.7561146635  SOLV      2361            0.0000000000
      7197      2372  TIP3      H2            -20.3220003985       -4.1749657466      -17.8004146635  SOLV      2361            0.0000000000
      7198      2373  TIP3      OH2           -13.3397503985      -18.8266457466      -18.0866746635  SOLV      2362            0.0000000000
      7199      2373  TIP3      H1            -13.1616203985      -19.4733257466      -17.4038146635  SOLV      2362            0.0000000000
      7200      2373  TIP3      H2            -13.3931303985      -17.9928757466      -17.6195646635  SOLV      2362            0.0000000000
      7201      2374  TIP3      OH2           -11.4613703985       -3.8782357466      -19.6910046635  SOLV      2363            0.0000000000
      7202      2374  TIP3      H1            -10.5953503985       -3.5114957466      -19.8691846635  SOLV      2363            0.0000000000
      7203      2374  TIP3      H2            -11.7080903985       -4.3174357466      -20.5049246635  SOLV      2363            0.0000000000
      7204      2375  TIP3      OH2            -4.7524103985       -4.3152057466      -17.0118946635  SOLV      2364            0.0000000000
      7205      2375  TIP3      H1             -4.9467003985       -5.0629957466      -17.5769346635  SOLV      2364            0.0000000000
      7206      2375  TIP3      H2             -4.7914003985       -3.5571957466      -17.5951046635  SOLV      2364            0.0000000000
      7207      2376  TIP3      OH2           -19.1052103985      -20.3195657466       -5.2721246635  SOLV      2365            0.0000000000
      7208      2376  TIP3      H1            -19.4713903985      -21.0853057466       -4.8296546635  SOLV      2365            0.0000000000
      7209      2376  TIP3      H2            -18.1923603985      -20.2905457466       -4.9856146635  SOLV      2365            0.0000000000
      7210      2377  TIP3      OH2           -17.1321303985      -20.9691257466       -3.7364146635  SOLV      2366            0.0000000000
      7211      2377  TIP3      H1            -16.2337703985      -21.2431057466       -3.9210746635  SOLV      2366            0.0000000000
      7212      2377  TIP3      H2            -17.5188203985      -21.7115257466       -3.2721546635  SOLV      2366            0.0000000000
      7213      2378  TIP3      OH2           -18.5076003985       -4.1676457466      -21.0634146635  SOLV      2367            0.0000000000
      7214      2378  TIP3      H1            -18.7751403985       -3.8813557466      -20.1901046635  SOLV      2367            0.0000000000
      7215      2378  TIP3      H2            -17.7363403985       -4.7137257466      -20.9111646635  SOLV      2367            0.0000000000
      7216      2379  TIP3      OH2            -8.7109003985      -21.6365957466       -3.5541346635  SOLV      2368            0.0000000000
      7217      2379  TIP3      H1             -8.6341803985      -22.0625257466       -2.7003646635  SOLV      2368            0.0000000000
      7218      2379  TIP3      H2             -7.8172403985      -21.6231257466       -3.8967846635  SOLV      2368            0.0000000000
      7219      2380  TIP3      OH2            -5.5347903985       -5.5639657466       -4.8617146635  SOLV      2369            0.0000000000
      7220      2380  TIP3      H1             -6.3166003985       -5.7501657466       -5.3816546635  SOLV      2369            0.0000000000
      7221      2380  TIP3      H2             -5.6068003985       -4.6345357466       -4.6444646635  SOLV      2369            0.0000000000
      7222      2381  TIP3      OH2             8.8712496015      -11.6775257466      -14.8309946635  SOLV      2370            0.0000000000
      7223      2381  TIP3      H1              8.9603596015      -10.7337057466      -14.9632846635  SOLV      2370            0.0000000000
      7224      2381  TIP3      H2              8.2330096015      -11.9528857466      -15.4890546635  SOLV      2370            0.0000000000
      7225      2382  TIP3      OH2             7.8043796015      -12.4224557466      -11.4121746635  SOLV      2371            0.0000000000
      7226      2382  TIP3      H1              7.7661296015      -13.0688257466      -10.7072146635  SOLV      2371            0.0000000000
      7227      2382  TIP3      H2              7.4820296015      -12.8890157466      -12.1833046635  SOLV      2371            0.0000000000
      7228      2383  TIP3      OH2             0.1728796015      -12.8082457466       -9.8191846635  SOLV      2372            0.0000000000
      7229      2383  TIP3      H1              0.2140896015      -13.4339157466       -9.0959446635  SOLV      2372            0.0000000000
      7230      2383  TIP3      H2              0.8756496015      -12.1843857466       -9.6371446635  SOLV      2372            0.0000000000
      7231      2384  TIP3      OH2            11.5103996015       -9.4834157466      -13.1106646635  SOLV      2373            0.0000000000
      7232      2384  TIP3      H1             11.0696696015      -10.2038157466      -12.6601046635  SOLV      2373            0.0000000000
      7233      2384  TIP3      H2             11.4973696015       -8.7626957466      -12.4808946635  SOLV      2373            0.0000000000
      7234      2385  TIP3      OH2             1.0961896015       -8.3583557466      -11.2842746635  SOLV      2374            0.0000000000
      7235      2385  TIP3      H1              0.7267096015       -9.1603057466      -11.6538446635  SOLV      2374            0.0000000000
      7236      2385  TIP3      H2              2.0372996015       -8.5268657466      -11.2379346635  SOLV      2374            0.0000000000
      7237      2386  TIP3      OH2            -2.2937603985      -14.6980957466      -15.8913946635  SOLV      2375            0.0000000000
      7238      2386  TIP3      H1             -2.7414203985      -13.8522257466      -15.9097446635  SOLV      2375            0.0000000000
      7239      2386  TIP3      H2             -2.8546403985      -15.2776757466      -16.4068846635  SOLV      2375            0.0000000000
      7240      2387  TIP3      OH2            -1.5831503985      -12.5361357466      -13.7655946635  SOLV      2376            0.0000000000
      7241      2387  TIP3      H1             -1.3698003985      -13.3059757466      -13.2382946635  SOLV      2376            0.0000000000
      7242      2387  TIP3      H2             -0.8453903985      -12.4464657466      -14.3688346635  SOLV      2376            0.0000000000
      7243      2388  TIP3      OH2             8.6219496015       -4.3792457466      -12.8986246635  SOLV      2377            0.0000000000
      7244      2388  TIP3      H1              9.2415896015       -5.0557757466      -13.1717046635  SOLV      2377            0.0000000000
      7245      2388  TIP3      H2              8.4136896015       -4.5971657466      -11.9901346635  SOLV      2377            0.0000000000
      7246      2389  TIP3      OH2             6.1938196015       -9.9903157466      -11.0060746635  SOLV      2378            0.0000000000
      7247      2389  TIP3      H1              6.4976096015      -10.6761757466      -11.6006646635  SOLV      2378            0.0000000000
      7248      2389  TIP3      H2              6.9152196015       -9.8714457466      -10.3882746635  SOLV      2378            0.0000000000
      7249      2390  TIP3      OH2            14.8567996015      -18.3887857466      -10.1454546635  SOLV      2379            0.0000000000
      7250      2390  TIP3      H1             14.9060196015      -17.7786657466       -9.4095446635  SOLV      2379            0.0000000000
      7251      2390  TIP3      H2             15.2823096015      -17.9276957466      -10.8683446635  SOLV      2379            0.0000000000
      7252      2391  TIP3      OH2             9.3345196015      -15.5960757466      -10.6785946635  SOLV      2380            0.0000000000
      7253      2391  TIP3      H1              9.4771096015      -16.5423757466      -10.6584346635  SOLV      2380            0.0000000000
      7254      2391  TIP3      H2              9.2284196015      -15.3890957466      -11.6071046635  SOLV      2380            0.0000000000
      7255      2392  TIP3      OH2             2.4893496015      -17.4944357466      -13.4061146635  SOLV      2381            0.0000000000
      7256      2392  TIP3      H1              2.5324596015      -16.6345857466      -13.8244846635  SOLV      2381            0.0000000000
      7257      2392  TIP3      H2              2.0317596015      -18.0469657466      -14.0397946635  SOLV      2381            0.0000000000
      7258      2393  TIP3      OH2            10.2116196015      -17.3638757466      -15.0052846635  SOLV      2382            0.0000000000
      7259      2393  TIP3      H1             10.8580496015      -17.6925557466      -14.3805246635  SOLV      2382            0.0000000000
      7260      2393  TIP3      H2             10.7215596015      -16.8459757466      -15.6281446635  SOLV      2382            0.0000000000
      7261      2394  TIP3      OH2            -0.8905003985      -15.0978557466      -12.6439746635  SOLV      2383            0.0000000000
      7262      2394  TIP3      H1             -0.2368403985      -15.6476857466      -12.2119646635  SOLV      2383            0.0000000000
      7263      2394  TIP3      H2             -0.8665703985      -15.3719557466      -13.5607746635  SOLV      2383            0.0000000000
      7264      2395  TIP3      OH2             4.2659496015      -13.5477257466      -13.4288246635  SOLV      2384            0.0000000000
      7265      2395  TIP3      H1              4.8820496015      -14.0741857466      -12.9194246635  SOLV      2384            0.0000000000
      7266      2395  TIP3      H2              3.6798296015      -14.1878557466      -13.8324646635  SOLV      2384            0.0000000000
      7267      2396  TIP3      OH2            15.2482596015      -16.9108657466       -7.9094746635  SOLV      2385            0.0000000000
      7268      2396  TIP3      H1             14.5597196015      -16.2527957466       -8.0048146635  SOLV      2385            0.0000000000
      7269      2396  TIP3      H2             15.2637196015      -17.1080757466       -6.9729346635  SOLV      2385            0.0000000000
      7270      2397  TIP3      OH2             1.2995396015      -18.5765957466       -9.3320346635  SOLV      2386            0.0000000000
      7271      2397  TIP3      H1              1.0807096015      -18.0465357466      -10.0984346635  SOLV      2386            0.0000000000
      7272      2397  TIP3      H2              0.6316296015      -18.3500457466       -8.6848946635  SOLV      2386            0.0000000000
      7273      2398  TIP3      OH2             8.6685196015       -9.0764857466      -15.7881246635  SOLV      2387            0.0000000000
      7274      2398  TIP3      H1              8.3730296015       -9.3992557466      -16.6394346635  SOLV      2387            0.0000000000
      7275      2398  TIP3      H2              8.3442996015       -8.1768157466      -15.7468646635  SOLV      2387            0.0000000000
      7276      2399  TIP3      OH2             3.8686796015      -10.9010257466       -9.0446646635  SOLV      2388            0.0000000000
      7277      2399  TIP3      H1              3.1285896015      -10.3028757466       -8.9411446635  SOLV      2388            0.0000000000
      7278      2399  TIP3      H2              4.5826296015      -10.3470657466       -9.3603046635  SOLV      2388            0.0000000000
      7279      2400  TIP3      OH2            11.9754596015      -18.0729457466      -13.0246946635  SOLV      2389            0.0000000000
      7280      2400  TIP3      H1             11.7602596015      -18.8386057466      -12.4920946635  SOLV      2389            0.0000000000
      7281      2400  TIP3      H2             12.6311996015      -17.6004857466      -12.5118446635  SOLV      2389            0.0000000000
      7282      2401  TIP3      OH2             0.8932696015      -16.6844157466      -11.3798146635  SOLV      2390            0.0000000000
      7283      2401  TIP3      H1              1.5068996015      -16.0516557466      -11.0065746635  SOLV      2390            0.0000000000
      7284      2401  TIP3      H2              1.4053396015      -17.1569157466      -12.0361246635  SOLV      2390            0.0000000000
      7285      2402  TIP3      OH2             2.2761096015       -8.9367257466       -8.2575146635  SOLV      2391            0.0000000000
      7286      2402  TIP3      H1              2.2708696015       -8.0573757466       -8.6355846635  SOLV      2391            0.0000000000
      7287      2402  TIP3      H2              1.4225196015       -9.0203157466       -7.8325246635  SOLV      2391            0.0000000000
      7288      2403  TIP3      OH2            -1.6028003985       -9.2659357466      -17.4755846635  SOLV      2392            0.0000000000
      7289      2403  TIP3      H1             -1.8747103985       -9.0368357466      -18.3642946635  SOLV      2392            0.0000000000
      7290      2403  TIP3      H2             -1.5572303985       -8.4280557466      -17.0150546635  SOLV      2392            0.0000000000
      7291      2404  TIP3      OH2            12.0221696015       -7.6443457466      -10.7627346635  SOLV      2393            0.0000000000
      7292      2404  TIP3      H1             11.0805396015       -7.5859557466      -10.6010446635  SOLV      2393            0.0000000000
      7293      2404  TIP3      H2             12.2987796015       -6.7382957466      -10.8997646635  SOLV      2393            0.0000000000
      7294      2405  TIP3      OH2            12.3228696015      -19.3578157466       -9.3453446635  SOLV      2394            0.0000000000
      7295      2405  TIP3      H1             11.5867896015      -18.7471057466       -9.3832146635  SOLV      2394            0.0000000000
      7296      2405  TIP3      H2             13.0062696015      -18.9429157466       -9.8717046635  SOLV      2394            0.0000000000
      7297      2406  TIP3      OH2             5.3260096015      -21.2710857466      -11.8795446635  SOLV      2395            0.0000000000
      7298      2406  TIP3      H1              5.2084296015      -22.2194857466      -11.9337146635  SOLV      2395            0.0000000000
      7299      2406  TIP3      H2              4.4710196015      -20.9384757466      -11.6064346635  SOLV      2395            0.0000000000
      7300      2407  TIP3      OH2            10.2742896015       -5.8629957466      -14.1375746635  SOLV      2396            0.0000000000
      7301      2407  TIP3      H1             10.6995196015       -6.5702057466      -14.6226146635  SOLV      2396            0.0000000000
      7302      2407  TIP3      H2             10.5912896015       -5.0617257466      -14.5543546635  SOLV      2396            0.0000000000
      7303      2408  TIP3      OH2            11.4339396015       -7.9621457466      -15.6289146635  SOLV      2397            0.0000000000
      7304      2408  TIP3      H1             11.1764196015       -8.6521357466      -16.2403246635  SOLV      2397            0.0000000000
      7305      2408  TIP3      H2             11.5050196015       -8.4050257466      -14.7833246635  SOLV      2397            0.0000000000
      7306      2409  TIP3      OH2            13.1199596015       -9.3954757466       -7.1515646635  SOLV      2398            0.0000000000
      7307      2409  TIP3      H1             13.2595896015       -9.9872257466       -7.8908646635  SOLV      2398            0.0000000000
      7308      2409  TIP3      H2             13.2872396015       -8.5228857466       -7.5076846635  SOLV      2398            0.0000000000
      7309      2410  TIP3      OH2             7.5924996015      -12.4335257466      -17.3789646635  SOLV      2399            0.0000000000
      7310      2410  TIP3      H1              6.8810496015      -11.8985557466      -17.7309146635  SOLV      2399            0.0000000000
      7311      2410  TIP3      H2              8.2834596015      -12.3783157466      -18.0390746635  SOLV      2399            0.0000000000
      7312      2411  TIP3      OH2             7.6464196015      -13.9760957466      -20.3404646635  SOLV      2400            0.0000000000
      7313      2411  TIP3      H1              8.3474096015      -13.9534057466      -19.6890646635  SOLV      2400            0.0000000000
      7314      2411  TIP3      H2              7.9487096015      -14.6041257466      -20.9965346635  SOLV      2400            0.0000000000
      7315      2412  TIP3      OH2            14.9618896015      -13.0556757466       -9.0855246635  SOLV      2401            0.0000000000
      7316      2412  TIP3      H1             14.3092996015      -12.3611157466       -8.9964346635  SOLV      2401            0.0000000000
      7317      2412  TIP3      H2             15.4269196015      -12.8455857466       -9.8953646635  SOLV      2401            0.0000000000
      7318      2413  TIP3      OH2            10.9982696015      -12.2241957466      -16.4273746635  SOLV      2402            0.0000000000
      7319      2413  TIP3      H1             10.2663696015      -11.9958257466      -15.8543146635  SOLV      2402            0.0000000000
      7320      2413  TIP3      H2             11.4454896015      -12.9379257466      -15.9726246635  SOLV      2402            0.0000000000
      7321      2414  TIP3      OH2            10.8956196015      -14.0499357466       -7.3596746635  SOLV      2403            0.0000000000
      7322      2414  TIP3      H1             10.9755296015      -13.2864957466       -6.7878246635  SOLV      2403            0.0000000000
      7323      2414  TIP3      H2             10.2943896015      -13.7706957466       -8.0501646635  SOLV      2403            0.0000000000
      7324      2415  TIP3      OH2             2.6436396015      -11.5935757466      -14.5448746635  SOLV      2404            0.0000000000
      7325      2415  TIP3      H1              2.3131596015      -11.9642357466      -15.3631746635  SOLV      2404            0.0000000000
      7326      2415  TIP3      H2              3.2320496015      -12.2641757466      -14.1980446635  SOLV      2404            0.0000000000
      7327      2416  TIP3      OH2             4.0103896015       -8.1655157466      -11.8636546635  SOLV      2405            0.0000000000
      7328      2416  TIP3      H1              3.9155196015       -8.7442057466      -12.6201946635  SOLV      2405            0.0000000000
      7329      2416  TIP3      H2              4.7397496015       -8.5369457466      -11.3673746635  SOLV      2405            0.0000000000
      7330      2417  TIP3      OH2             3.0101896015      -12.8250157466      -10.9113746635  SOLV      2406            0.0000000000
      7331      2417  TIP3      H1              3.5754396015      -12.7035957466      -11.6742546635  SOLV      2406            0.0000000000
      7332      2417  TIP3      H2              3.3290796015      -12.1875157466      -10.2725246635  SOLV      2406            0.0000000000
      7333      2418  TIP3      OH2             9.3194096015       -7.3218257466      -10.1773246635  SOLV      2407            0.0000000000
      7334      2418  TIP3      H1              9.0790696015       -6.6595157466       -9.5294046635  SOLV      2407            0.0000000000
      7335      2418  TIP3      H2              9.1212296015       -8.1563057466       -9.7523646635  SOLV      2407            0.0000000000
      7336      2419  TIP3      OH2             3.8902596015       -8.4257457466       -6.1941846635  SOLV      2408            0.0000000000
      7337      2419  TIP3      H1              3.5790096015       -7.6434257466       -5.7388646635  SOLV      2408            0.0000000000
      7338      2419  TIP3      H2              3.2402796015       -8.5788357466       -6.8799846635  SOLV      2408            0.0000000000
      7339      2420  TIP3      OH2             9.8692196015      -13.0619057466      -18.7422546635  SOLV      2409            0.0000000000
      7340      2420  TIP3      H1             10.4487696015      -12.9118757466      -17.9953646635  SOLV      2409            0.0000000000
      7341      2420  TIP3      H2             10.2832196015      -12.5911657466      -19.4656146635  SOLV      2409            0.0000000000
      7342      2421  TIP3      OH2             0.8102496015      -12.2276357466       -6.9656146635  SOLV      2410            0.0000000000
      7343      2421  TIP3      H1              0.8805696015      -11.5769557466       -6.2671146635  SOLV      2410            0.0000000000
      7344      2421  TIP3      H2             -0.0805303985      -12.1248857466       -7.3005246635  SOLV      2410            0.0000000000
      7345      2422  TIP3      OH2             7.5957096015       -6.3250557466      -15.3069446635  SOLV      2411            0.0000000000
      7346      2422  TIP3      H1              8.0694696015       -6.0294257466      -14.5295246635  SOLV      2411            0.0000000000
      7347      2422  TIP3      H2              7.0326396015       -5.5868957466      -15.5399846635  SOLV      2411            0.0000000000
      7348      2423  TIP3      OH2             2.1298496015       -6.3542457466       -5.4308046635  SOLV      2412            0.0000000000
      7349      2423  TIP3      H1              2.1373796015       -6.4902757466       -6.3782546635  SOLV      2412            0.0000000000
      7350      2423  TIP3      H2              1.2138896015       -6.4714357466       -5.1788046635  SOLV      2412            0.0000000000
      7351      2424  TIP3      OH2            13.5680596015      -21.3118657466      -18.9292846635  SOLV      2413            0.0000000000
      7352      2424  TIP3      H1             12.6681296015      -21.1729657466      -18.6342246635  SOLV      2413            0.0000000000
      7353      2424  TIP3      H2             13.8198996015      -20.4804057466      -19.3311146635  SOLV      2413            0.0000000000
      7354      2425  TIP3      OH2             1.6339096015      -12.5241457466      -16.9555946635  SOLV      2414            0.0000000000
      7355      2425  TIP3      H1              1.3420396015      -11.7559757466      -17.4464646635  SOLV      2414            0.0000000000
      7356      2425  TIP3      H2              0.9594296015      -13.1835257466      -17.1184546635  SOLV      2414            0.0000000000
      7357      2426  TIP3      OH2            14.7571996015       -6.9456257466      -20.5528946635  SOLV      2415            0.0000000000
      7358      2426  TIP3      H1             14.8305496015       -6.0066057466      -20.3823646635  SOLV      2415            0.0000000000
      7359      2426  TIP3      H2             15.6627096015       -7.2507657466      -20.6091646635  SOLV      2415            0.0000000000
      7360      2427  TIP3      OH2            -2.2730803985      -10.1612257466       -8.1406146635  SOLV      2416            0.0000000000
      7361      2427  TIP3      H1             -2.7742403985      -10.1892857466       -8.9556446635  SOLV      2416            0.0000000000
      7362      2427  TIP3      H2             -2.2677103985      -11.0669057466       -7.8308846635  SOLV      2416            0.0000000000
      7363      2428  TIP3      OH2            -2.5228103985       -7.3808457466      -11.2565946635  SOLV      2417            0.0000000000
      7364      2428  TIP3      H1             -1.5767503985       -7.5251457466      -11.2756446635  SOLV      2417            0.0000000000
      7365      2428  TIP3      H2             -2.6351803985       -6.5965657466      -10.7194746635  SOLV      2417            0.0000000000
      7366      2429  TIP3      OH2            15.6750396015       -6.7148757466       -5.5742246635  SOLV      2418            0.0000000000
      7367      2429  TIP3      H1             15.6257196015       -7.6700657466       -5.6114646635  SOLV      2418            0.0000000000
      7368      2429  TIP3      H2             14.8482696015       -6.4473457466       -5.1728446635  SOLV      2418            0.0000000000
      7369      2430  TIP3      OH2             6.6534396015       -7.1409557466       -6.6980846635  SOLV      2419            0.0000000000
      7370      2430  TIP3      H1              6.7408996015       -6.3144957466       -6.2231746635  SOLV      2419            0.0000000000
      7371      2430  TIP3      H2              5.7899496015       -7.4705757466       -6.4491546635  SOLV      2419            0.0000000000
      7372      2431  TIP3      OH2             7.0680196015       -3.3685857466      -16.8920246635  SOLV      2420            0.0000000000
      7373      2431  TIP3      H1              6.9926196015       -3.4898657466      -17.8385046635  SOLV      2420            0.0000000000
      7374      2431  TIP3      H2              7.1008896015       -2.4193157466      -16.7735646635  SOLV      2420            0.0000000000
      7375      2432  TIP3      OH2             0.7213996015       -4.5798857466      -15.1111246635  SOLV      2421            0.0000000000
      7376      2432  TIP3      H1              0.8734396015       -4.9278457466      -14.2324746635  SOLV      2421            0.0000000000
      7377      2432  TIP3      H2             -0.1295603985       -4.9361557466      -15.3664046635  SOLV      2421            0.0000000000
      7378      2433  TIP3      OH2            10.1696196015       -4.2145657466      -19.8897846635  SOLV      2422            0.0000000000
      7379      2433  TIP3      H1             10.5444596015       -4.9589557466      -20.3605246635  SOLV      2422            0.0000000000
      7380      2433  TIP3      H2             10.1739896015       -4.4845057466      -18.9714546635  SOLV      2422            0.0000000000
      7381      2434  TIP3      OH2             9.8384296015       -4.2888557466      -17.1405646635  SOLV      2423            0.0000000000
      7382      2434  TIP3      H1              8.9034096015       -4.1886657466      -16.9618646635  SOLV      2423            0.0000000000
      7383      2434  TIP3      H2             10.1186196015       -4.9982557466      -16.5622446635  SOLV      2423            0.0000000000
      7384      2435  TIP3      OH2            12.8270196015      -15.2216257466       -5.0940046635  SOLV      2424            0.0000000000
      7385      2435  TIP3      H1             12.4196996015      -14.7410657466       -5.8146746635  SOLV      2424            0.0000000000
      7386      2435  TIP3      H2             12.8675896015      -16.1270257466       -5.4019246635  SOLV      2424            0.0000000000
      7387      2436  TIP3      OH2            -0.0240303985       -8.8376857466       -7.0973346635  SOLV      2425            0.0000000000
      7388      2436  TIP3      H1              0.1920996015       -9.1991257466       -6.2377546635  SOLV      2425            0.0000000000
      7389      2436  TIP3      H2             -0.8795603985       -9.2123057466       -7.3069846635  SOLV      2425            0.0000000000
      7390      2437  TIP3      OH2             2.5947696015      -20.3676357466      -11.1019146635  SOLV      2426            0.0000000000
      7391      2437  TIP3      H1              1.7331396015      -20.4548157466      -11.5096246635  SOLV      2426            0.0000000000
      7392      2437  TIP3      H2              2.5723396015      -19.5116257466      -10.6741546635  SOLV      2426            0.0000000000
      7393      2438  TIP3      OH2             7.2575496015      -20.6455957466       -7.7272146635  SOLV      2427            0.0000000000
      7394      2438  TIP3      H1              7.6778596015      -21.0608857466       -6.9741546635  SOLV      2427            0.0000000000
      7395      2438  TIP3      H2              6.3245096015      -20.8242657466       -7.6100146635  SOLV      2427            0.0000000000
      7396      2439  TIP3      OH2            10.5840396015      -16.8900757466       -6.8737646635  SOLV      2428            0.0000000000
      7397      2439  TIP3      H1             10.0699896015      -17.0158557466       -6.0761646635  SOLV      2428            0.0000000000
      7398      2439  TIP3      H2             10.4285096015      -15.9777657466       -7.1181446635  SOLV      2428            0.0000000000
      7399      2440  TIP3      OH2            11.3465296015      -12.0290757466      -21.1124646635  SOLV      2429            0.0000000000
      7400      2440  TIP3      H1             11.3886096015      -12.2516857466      -22.0424646635  SOLV      2429            0.0000000000
      7401      2440  TIP3      H2             12.1957396015      -11.6303657466      -20.9224746635  SOLV      2429            0.0000000000
      7402      2441  TIP3      OH2             6.9192796015      -18.1532557466      -20.4421346635  SOLV      2430            0.0000000000
      7403      2441  TIP3      H1              6.6657596015      -18.1340957466      -19.5193246635  SOLV      2430            0.0000000000
      7404      2441  TIP3      H2              6.6624896015      -19.0247157466      -20.7435146635  SOLV      2430            0.0000000000
      7405      2442  TIP3      OH2             2.6857796015      -15.4021857466      -10.0068946635  SOLV      2431            0.0000000000
      7406      2442  TIP3      H1              2.0439896015      -15.4424557466       -9.2978846635  SOLV      2431            0.0000000000
      7407      2442  TIP3      H2              2.7229796015      -14.4757157466      -10.2445946635  SOLV      2431            0.0000000000
      7408      2443  TIP3      OH2             2.6826896015      -15.1811757466      -15.0948946635  SOLV      2432            0.0000000000
      7409      2443  TIP3      H1              1.7899796015      -15.5215657466      -15.1535146635  SOLV      2432            0.0000000000
      7410      2443  TIP3      H2              3.1333496015      -15.5580857466      -15.8505746635  SOLV      2432            0.0000000000
      7411      2444  TIP3      OH2             8.2182396015      -14.7651457466      -16.2778146635  SOLV      2433            0.0000000000
      7412      2444  TIP3      H1              7.8092696015      -13.9502857466      -16.5693346635  SOLV      2433            0.0000000000
      7413      2444  TIP3      H2              8.9388596015      -14.9051357466      -16.8921046635  SOLV      2433            0.0000000000
      7414      2445  TIP3      OH2             7.3203996015      -14.5895057466       -4.7897446635  SOLV      2434            0.0000000000
      7415      2445  TIP3      H1              6.7577796015      -15.2943457466       -4.4689646635  SOLV      2434            0.0000000000
      7416      2445  TIP3      H2              8.1467396015      -14.7103157466       -4.3219846635  SOLV      2434            0.0000000000
      7417      2446  TIP3      OH2             9.2230096015      -15.3191057466      -13.4638446635  SOLV      2435            0.0000000000
      7418      2446  TIP3      H1              9.0274596015      -14.7134257466      -14.1787846635  SOLV      2435            0.0000000000
      7419      2446  TIP3      H2              9.4042696015      -16.1525857466      -13.8982146635  SOLV      2435            0.0000000000
      7420      2447  TIP3      OH2             0.4358296015      -15.0818357466       -8.1396946635  SOLV      2436            0.0000000000
      7421      2447  TIP3      H1              0.3977696015      -14.6816757466       -7.2709846635  SOLV      2436            0.0000000000
      7422      2447  TIP3      H2             -0.0550603985      -15.8985957466       -8.0494046635  SOLV      2436            0.0000000000
      7423      2448  TIP3      OH2             3.8015696015      -17.7076057466      -21.3410946635  SOLV      2437            0.0000000000
      7424      2448  TIP3      H1              3.3706396015      -18.1525957466      -20.6113546635  SOLV      2437            0.0000000000
      7425      2448  TIP3      H2              3.0834396015      -17.3359757466      -21.8533446635  SOLV      2437            0.0000000000
      7426      2449  TIP3      OH2            -2.9560903985      -17.9656557466      -14.2892246635  SOLV      2438            0.0000000000
      7427      2449  TIP3      H1             -2.3253203985      -17.9944457466      -13.5698346635  SOLV      2438            0.0000000000
      7428      2449  TIP3      H2             -2.5066603985      -18.3907857466      -15.0196346635  SOLV      2438            0.0000000000
      7429      2450  TIP3      OH2            -1.6818803985      -17.2194557466      -18.8651846635  SOLV      2439            0.0000000000
      7430      2450  TIP3      H1             -1.2077103985      -16.6284657466      -19.4500946635  SOLV      2439            0.0000000000
      7431      2450  TIP3      H2             -2.3992403985      -16.6891657466      -18.5181746635  SOLV      2439            0.0000000000
      7432      2451  TIP3      OH2             8.4869296015      -13.6809757466       -8.7926046635  SOLV      2440            0.0000000000
      7433      2451  TIP3      H1              8.8104096015      -14.3120057466       -9.4355546635  SOLV      2440            0.0000000000
      7434      2451  TIP3      H2              8.0468596015      -14.2157557466       -8.1318646635  SOLV      2440            0.0000000000
      7435      2452  TIP3      OH2             5.2642196015      -17.7534257466      -14.0084846635  SOLV      2441            0.0000000000
      7436      2452  TIP3      H1              4.3533296015      -17.6967457466      -13.7198846635  SOLV      2441            0.0000000000
      7437      2452  TIP3      H2              5.7695096015      -17.8138757466      -13.1977646635  SOLV      2441            0.0000000000
      7438      2453  TIP3      OH2             0.0925596015      -16.1247957466      -15.1817246635  SOLV      2442            0.0000000000
      7439      2453  TIP3      H1             -0.7966403985      -16.0252457466      -15.5217646635  SOLV      2442            0.0000000000
      7440      2453  TIP3      H2              0.3890496015      -16.9664957466      -15.5279346635  SOLV      2442            0.0000000000
      7441      2454  TIP3      OH2             3.7457396015      -16.1245357466      -17.5252646635  SOLV      2443            0.0000000000
      7442      2454  TIP3      H1              4.6772896015      -15.9955357466      -17.3469546635  SOLV      2443            0.0000000000
      7443      2454  TIP3      H2              3.5307696015      -15.4551057466      -18.1747946635  SOLV      2443            0.0000000000
      7444      2455  TIP3      OH2             9.6694096015      -18.5187957466      -10.7443046635  SOLV      2444            0.0000000000
      7445      2455  TIP3      H1              8.9925696015      -18.3874857466      -10.0803346635  SOLV      2444            0.0000000000
      7446      2455  TIP3      H2              9.1838996015      -18.6738457466      -11.5545346635  SOLV      2444            0.0000000000
      7447      2456  TIP3      OH2             2.4197596015      -14.9303157466      -19.9586546635  SOLV      2445            0.0000000000
      7448      2456  TIP3      H1              1.8772696015      -15.3099357466      -20.6498946635  SOLV      2445            0.0000000000
      7449      2456  TIP3      H2              3.2532496015      -14.7358457466      -20.3872446635  SOLV      2445            0.0000000000
      7450      2457  TIP3      OH2            12.9569196015       -2.8472557466       -4.4675446635  SOLV      2446            0.0000000000
      7451      2457  TIP3      H1             13.1567896015       -2.4230657466       -5.3020146635  SOLV      2446            0.0000000000
      7452      2457  TIP3      H2             13.6122896015       -2.5034357466       -3.8605046635  SOLV      2446            0.0000000000
      7453      2458  TIP3      OH2             0.5548996015      -10.3731257466       -4.8594946635  SOLV      2447            0.0000000000
      7454      2458  TIP3      H1              1.2871396015      -10.1185357466       -4.2980446635  SOLV      2447            0.0000000000
      7455      2458  TIP3      H2             -0.2252303985      -10.1685857466       -4.3439546635  SOLV      2447            0.0000000000
      7456      2459  TIP3      OH2             6.5841896015      -14.9661257466      -12.1215246635  SOLV      2448            0.0000000000
      7457      2459  TIP3      H1              7.1485296015      -15.5124657466      -12.6685646635  SOLV      2448            0.0000000000
      7458      2459  TIP3      H2              6.4365296015      -15.4879357466      -11.3327646635  SOLV      2448            0.0000000000
      7459      2460  TIP3      OH2             1.5861596015      -18.8295157466      -15.7030446635  SOLV      2449            0.0000000000
      7460      2460  TIP3      H1              1.2691096015      -19.7319857466      -15.7385046635  SOLV      2449            0.0000000000
      7461      2460  TIP3      H2              2.3675696015      -18.8277757466      -16.2558846635  SOLV      2449            0.0000000000
      7462      2461  TIP3      OH2             5.2107796015      -16.5775157466       -9.7074846635  SOLV      2450            0.0000000000
      7463      2461  TIP3      H1              4.3753096015      -16.1235657466       -9.5972446635  SOLV      2450            0.0000000000
      7464      2461  TIP3      H2              5.7348396015      -16.3016657466       -8.9554946635  SOLV      2450            0.0000000000
      7465      2462  TIP3      OH2             5.7550396015      -10.3647457466      -18.0228446635  SOLV      2451            0.0000000000
      7466      2462  TIP3      H1              5.0101396015      -10.8722157466      -18.3450546635  SOLV      2451            0.0000000000
      7467      2462  TIP3      H2              5.6207596015      -10.3159457466      -17.0763646635  SOLV      2451            0.0000000000
      7468      2463  TIP3      OH2            12.9049296015      -11.2319257466       -9.2360846635  SOLV      2452            0.0000000000
      7469      2463  TIP3      H1             13.5468096015      -10.7752957466       -9.7798646635  SOLV      2452            0.0000000000
      7470      2463  TIP3      H2             12.0746196015      -11.1186857466       -9.6986746635  SOLV      2452            0.0000000000
      7471      2464  TIP3      OH2             9.6527196015      -17.5507557466      -19.8235846635  SOLV      2453            0.0000000000
      7472      2464  TIP3      H1              8.7141396015      -17.4391957466      -19.9747046635  SOLV      2453            0.0000000000
      7473      2464  TIP3      H2              9.9499296015      -16.6940657466      -19.5170146635  SOLV      2453            0.0000000000
      7474      2465  TIP3      OH2             7.2742496015      -10.1804157466       -6.7859346635  SOLV      2454            0.0000000000
      7475      2465  TIP3      H1              6.9288596015      -10.5621757466       -5.9789746635  SOLV      2454            0.0000000000
      7476      2465  TIP3      H2              7.0742596015       -9.2470557466       -6.7146446635  SOLV      2454            0.0000000000
      7477      2466  TIP3      OH2            10.3710696015      -15.6834857466      -18.1628446635  SOLV      2455            0.0000000000
      7478      2466  TIP3      H1             11.2629696015      -15.8209857466      -17.8437246635  SOLV      2455            0.0000000000
      7479      2466  TIP3      H2             10.4274296015      -14.8928757466      -18.6994946635  SOLV      2455            0.0000000000
      7480      2467  TIP3      OH2             0.8798696015      -11.0697457466      -12.2530546635  SOLV      2456            0.0000000000
      7481      2467  TIP3      H1              1.6245896015      -11.0721757466      -12.8544046635  SOLV      2456            0.0000000000
      7482      2467  TIP3      H2              0.9575296015      -11.8933657466      -11.7715446635  SOLV      2456            0.0000000000
      7483      2468  TIP3      OH2             7.8804496015       -8.9063157466      -18.9973846635  SOLV      2457            0.0000000000
      7484      2468  TIP3      H1              7.5852896015       -8.0795257466      -18.6159046635  SOLV      2457            0.0000000000
      7485      2468  TIP3      H2              7.1774496015       -9.5256257466      -18.8012446635  SOLV      2457            0.0000000000
      7486      2469  TIP3      OH2            -2.1121603985      -12.6090557466       -6.9382046635  SOLV      2458            0.0000000000
      7487      2469  TIP3      H1             -1.8893003985      -13.0270957466       -6.1064546635  SOLV      2458            0.0000000000
      7488      2469  TIP3      H2             -2.7141503985      -13.2215557466       -7.3609246635  SOLV      2458            0.0000000000
      7489      2470  TIP3      OH2             4.9043296015      -13.0920657466       -4.7252346635  SOLV      2459            0.0000000000
      7490      2470  TIP3      H1              4.6084096015      -13.2577657466       -5.6203246635  SOLV      2459            0.0000000000
      7491      2470  TIP3      H2              5.8358496015      -13.3120357466       -4.7358446635  SOLV      2459            0.0000000000
      7492      2471  TIP3      OH2             9.5246096015       -7.7188657466       -6.8354346635  SOLV      2460            0.0000000000
      7493      2471  TIP3      H1              8.6240396015       -7.5356057466       -7.1030446635  SOLV      2460            0.0000000000
      7494      2471  TIP3      H2              9.5587196015       -7.4599357466       -5.9145546635  SOLV      2460            0.0000000000
      7495      2472  TIP3      OH2            15.2559396015      -15.4740757466      -18.4681746635  SOLV      2461            0.0000000000
      7496      2472  TIP3      H1             14.7015696015      -15.8702757466      -19.1404246635  SOLV      2461            0.0000000000
      7497      2472  TIP3      H2             15.3562996015      -14.5635557466      -18.7458446635  SOLV      2461            0.0000000000
      7498      2473  TIP3      OH2            15.2191396015       -9.6739057466       -5.6310246635  SOLV      2462            0.0000000000
      7499      2473  TIP3      H1             14.3679896015       -9.4355257466       -5.9983846635  SOLV      2462            0.0000000000
      7500      2473  TIP3      H2             15.8094796015       -9.6905857466       -6.3843146635  SOLV      2462            0.0000000000
      7501      2474  TIP3      OH2            13.5511096015       -6.6880357466      -18.0029646635  SOLV      2463            0.0000000000
      7502      2474  TIP3      H1             13.1782196015       -7.5136557466      -17.6939046635  SOLV      2463            0.0000000000
      7503      2474  TIP3      H2             13.8284596015       -6.8710957466      -18.9006246635  SOLV      2463            0.0000000000
      7504      2475  TIP3      OH2            10.7114996015      -11.8800857466      -10.9817746635  SOLV      2464            0.0000000000
      7505      2475  TIP3      H1              9.7831896015      -12.1118957466      -11.0088446635  SOLV      2464            0.0000000000
      7506      2475  TIP3      H2             11.1626096015      -12.6571057466      -11.3118946635  SOLV      2464            0.0000000000
      7507      2476  TIP3      OH2             3.2548096015       -7.5519257466      -14.8489046635  SOLV      2465            0.0000000000
      7508      2476  TIP3      H1              3.7820296015       -6.7784857466      -15.0490246635  SOLV      2465            0.0000000000
      7509      2476  TIP3      H2              2.3746596015       -7.3270057466      -15.1505046635  SOLV      2465            0.0000000000
      7510      2477  TIP3      OH2            -0.9904203985      -12.6895157466      -20.2616646635  SOLV      2466            0.0000000000
      7511      2477  TIP3      H1             -0.3744303985      -12.0627957466      -19.8821846635  SOLV      2466            0.0000000000
      7512      2477  TIP3      H2             -1.8521603985      -12.3735357466      -19.9900146635  SOLV      2466            0.0000000000
      7513      2478  TIP3      OH2             4.6820396015       -9.8889357466      -15.2724746635  SOLV      2467            0.0000000000
      7514      2478  TIP3      H1              4.4410396015       -8.9634957466      -15.2309446635  SOLV      2467            0.0000000000
      7515      2478  TIP3      H2              3.9413996015      -10.3478057466      -14.8760846635  SOLV      2467            0.0000000000
      7516      2479  TIP3      OH2             5.1966996015       -5.7395757466       -8.9573646635  SOLV      2468            0.0000000000
      7517      2479  TIP3      H1              5.5591696015       -4.8850157466       -9.1909246635  SOLV      2468            0.0000000000
      7518      2479  TIP3      H2              5.7282196015       -6.0314157466       -8.2167346635  SOLV      2468            0.0000000000
      7519      2480  TIP3      OH2             3.3651196015       -4.8671757466      -15.7272546635  SOLV      2469            0.0000000000
      7520      2480  TIP3      H1              2.4151696015       -4.7614357466      -15.6759246635  SOLV      2469            0.0000000000
      7521      2480  TIP3      H2              3.7169296015       -4.0464357466      -15.3825046635  SOLV      2469            0.0000000000
      7522      2481  TIP3      OH2             8.7407796015       -9.6405057466       -9.2568046635  SOLV      2470            0.0000000000
      7523      2481  TIP3      H1              8.3149096015       -9.8683357466       -8.4304046635  SOLV      2470            0.0000000000
      7524      2481  TIP3      H2              9.3213596015      -10.3793257466       -9.4392746635  SOLV      2470            0.0000000000
      7525      2482  TIP3      OH2            10.9436696015       -8.7114557466      -20.1829046635  SOLV      2471            0.0000000000
      7526      2482  TIP3      H1             11.2969796015       -9.0914757466      -19.3785546635  SOLV      2471            0.0000000000
      7527      2482  TIP3      H2              9.9950196015       -8.8049757466      -20.0959746635  SOLV      2471            0.0000000000
      7528      2483  TIP3      OH2            11.3991996015       -5.0885557466       -6.7873246635  SOLV      2472            0.0000000000
      7529      2483  TIP3      H1             10.7975196015       -5.6442657466       -7.2826946635  SOLV      2472            0.0000000000
      7530      2483  TIP3      H2             11.6805696015       -4.4215757466       -7.4135846635  SOLV      2472            0.0000000000
      7531      2484  TIP3      OH2            15.4471096015       -4.2322057466      -19.9818846635  SOLV      2473            0.0000000000
      7532      2484  TIP3      H1             16.1908996015       -3.6461557466      -20.1217246635  SOLV      2473            0.0000000000
      7533      2484  TIP3      H2             14.7529196015       -3.6636257466      -19.6486446635  SOLV      2473            0.0000000000
      7534      2485  TIP3      OH2            -0.4782103985      -17.8557857466       -7.3800646635  SOLV      2474            0.0000000000
      7535      2485  TIP3      H1             -1.3709803985      -17.5172457466       -7.4476646635  SOLV      2474            0.0000000000
      7536      2485  TIP3      H2             -0.5769303985      -18.7111757466       -6.9619846635  SOLV      2474            0.0000000000
      7537      2486  TIP3      OH2            11.8095996015      -10.0392557466      -17.9561146635  SOLV      2475            0.0000000000
      7538      2486  TIP3      H1             11.5323596015      -10.7673257466      -17.4000046635  SOLV      2475            0.0000000000
      7539      2486  TIP3      H2             12.7368996015       -9.9200557466      -17.7508546635  SOLV      2475            0.0000000000
      7540      2487  TIP3      OH2            -0.8270103985       -6.0513457466       -8.9451246635  SOLV      2476            0.0000000000
      7541      2487  TIP3      H1             -0.6099803985       -6.9831057466       -8.9761546635  SOLV      2476            0.0000000000
      7542      2487  TIP3      H2             -0.5806603985       -5.7768457466       -8.0618446635  SOLV      2476            0.0000000000
      7543      2488  TIP3      OH2             5.0344496015       -7.5998457466      -21.7359046635  SOLV      2477            0.0000000000
      7544      2488  TIP3      H1              5.2734296015       -8.3480357466      -22.2830146635  SOLV      2477            0.0000000000
      7545      2488  TIP3      H2              4.7655796015       -7.9876757466      -20.9031246635  SOLV      2477            0.0000000000
      7546      2489  TIP3      OH2             3.9715096015       -8.0294657466      -19.2796446635  SOLV      2478            0.0000000000
      7547      2489  TIP3      H1              4.1183096015       -8.5494857466      -18.4895546635  SOLV      2478            0.0000000000
      7548      2489  TIP3      H2              3.9686796015       -7.1227057466      -18.9730546635  SOLV      2478            0.0000000000
      7549      2490  TIP3      OH2             0.4246196015      -10.7771357466      -18.7691046635  SOLV      2479            0.0000000000
      7550      2490  TIP3      H1             -0.2614503985      -10.4248857466      -18.2021346635  SOLV      2479            0.0000000000
      7551      2490  TIP3      H2              0.9474096015      -10.0141757466      -19.0156746635  SOLV      2479            0.0000000000
      7552      2491  TIP3      OH2             8.2561296015      -18.1147557466       -8.4902046635  SOLV      2480            0.0000000000
      7553      2491  TIP3      H1              8.9549196015      -18.0408857466       -7.8402346635  SOLV      2480            0.0000000000
      7554      2491  TIP3      H2              7.8752696015      -18.9792557466       -8.3359146635  SOLV      2480            0.0000000000
      7555      2492  TIP3      OH2             9.0406196015      -18.4625857466      -17.3929746635  SOLV      2481            0.0000000000
      7556      2492  TIP3      H1              9.2604496015      -17.9910457466      -18.1964346635  SOLV      2481            0.0000000000
      7557      2492  TIP3      H2              9.5990196015      -18.0683257466      -16.7229146635  SOLV      2481            0.0000000000
      7558      2493  TIP3      OH2             6.7092296015       -6.3321057466      -18.5302246635  SOLV      2482            0.0000000000
      7559      2493  TIP3      H1              5.8928396015       -5.8351357466      -18.4777946635  SOLV      2482            0.0000000000
      7560      2493  TIP3      H2              7.2388596015       -5.8567557466      -19.1703446635  SOLV      2482            0.0000000000
      7561      2494  TIP3      OH2             6.2406096015      -16.7347057466      -16.5581346635  SOLV      2483            0.0000000000
      7562      2494  TIP3      H1              7.0528696015      -16.2303857466      -16.5119646635  SOLV      2483            0.0000000000
      7563      2494  TIP3      H2              5.9959096015      -16.8797357466      -15.6441746635  SOLV      2483            0.0000000000
      7564      2495  TIP3      OH2             6.7762496015      -15.7484357466       -7.3734746635  SOLV      2484            0.0000000000
      7565      2495  TIP3      H1              6.8952796015      -15.1748957466       -6.6164346635  SOLV      2484            0.0000000000
      7566      2495  TIP3      H2              7.4317096015      -16.4364957466       -7.2586946635  SOLV      2484            0.0000000000
      7567      2496  TIP3      OH2             7.1242796015      -19.6534057466      -15.6200246635  SOLV      2485            0.0000000000
      7568      2496  TIP3      H1              6.7776296015      -19.0363457466      -14.9755946635  SOLV      2485            0.0000000000
      7569      2496  TIP3      H2              7.7829696015      -19.1528357466      -16.1014746635  SOLV      2485            0.0000000000
      7570      2497  TIP3      OH2             4.0475396015       -5.2883857466      -18.5485346635  SOLV      2486            0.0000000000
      7571      2497  TIP3      H1              4.2084096015       -4.4886357466      -19.0492746635  SOLV      2486            0.0000000000
      7572      2497  TIP3      H2              3.8503196015       -4.9817857466      -17.6634746635  SOLV      2486            0.0000000000
      7573      2498  TIP3      OH2             2.7819796015      -18.5904657466      -18.9327746635  SOLV      2487            0.0000000000
      7574      2498  TIP3      H1              2.6984596015      -17.7021557466      -18.5861346635  SOLV      2487            0.0000000000
      7575      2498  TIP3      H2              3.6720096015      -18.8557957466      -18.7010946635  SOLV      2487            0.0000000000
      7576      2499  TIP3      OH2            12.9808296015      -17.8414057466       -6.5385046635  SOLV      2488            0.0000000000
      7577      2499  TIP3      H1             12.0644096015      -17.5792357466       -6.6261346635  SOLV      2488            0.0000000000
      7578      2499  TIP3      H2             13.3163296015      -17.8445057466       -7.4349746635  SOLV      2488            0.0000000000
      7579      2500  TIP3      OH2            11.5829296015      -14.0913057466      -12.4427746635  SOLV      2489            0.0000000000
      7580      2500  TIP3      H1             10.7853696015      -14.5062857466      -12.7712746635  SOLV      2489            0.0000000000
      7581      2500  TIP3      H2             12.0280396015      -14.7819357466      -11.9517246635  SOLV      2489            0.0000000000
      7582      2501  TIP3      OH2             1.0405096015       -8.1632457466      -19.8723246635  SOLV      2490            0.0000000000
      7583      2501  TIP3      H1              1.6326596015       -7.4637657466      -19.5960846635  SOLV      2490            0.0000000000
      7584      2501  TIP3      H2              1.4998096015       -8.5962957466      -20.5918646635  SOLV      2490            0.0000000000
      7585      2502  TIP3      OH2            -0.6435703985      -15.4989457466      -20.7563846635  SOLV      2491            0.0000000000
      7586      2502  TIP3      H1             -0.6883103985      -14.5596357466      -20.5776846635  SOLV      2491            0.0000000000
      7587      2502  TIP3      H2             -1.5312503985      -15.7344557466      -21.0261746635  SOLV      2491            0.0000000000
      7588      2503  TIP3      OH2            12.6693896015       -4.8350557466      -10.8204246635  SOLV      2492            0.0000000000
      7589      2503  TIP3      H1             12.5138196015       -4.1566157466      -11.4774946635  SOLV      2492            0.0000000000
      7590      2503  TIP3      H2             13.6020296015       -4.7631257466      -10.6173646635  SOLV      2492            0.0000000000
      7591      2504  TIP3      OH2             0.1646296015      -20.7172857466      -12.0832846635  SOLV      2493            0.0000000000
      7592      2504  TIP3      H1             -0.0643903985      -20.6580357466      -13.0107846635  SOLV      2493            0.0000000000
      7593      2504  TIP3      H2             -0.2780303985      -21.5087357466      -11.7768746635  SOLV      2493            0.0000000000
      7594      2505  TIP3      OH2            -0.9050403985       -6.7765757466      -15.9227046635  SOLV      2494            0.0000000000
      7595      2505  TIP3      H1             -1.7371803985       -6.3043057466      -15.8955646635  SOLV      2494            0.0000000000
      7596      2505  TIP3      H2             -0.3592103985       -6.2668157466      -16.5213946635  SOLV      2494            0.0000000000
      7597      2506  TIP3      OH2             2.9806696015       -5.2447657466       -2.9724846635  SOLV      2495            0.0000000000
      7598      2506  TIP3      H1              3.7483896015       -5.7036857466       -2.6315646635  SOLV      2495            0.0000000000
      7599      2506  TIP3      H2              2.9592896015       -5.4707857466       -3.9023646635  SOLV      2495            0.0000000000
      7600      2507  TIP3      OH2             7.0726296015       -5.7367057466      -21.5973046635  SOLV      2496            0.0000000000
      7601      2507  TIP3      H1              6.4287296015       -6.3678457466      -21.2759346635  SOLV      2496            0.0000000000
      7602      2507  TIP3      H2              7.8344596015       -6.2679057466      -21.8289546635  SOLV      2496            0.0000000000
      7603      2508  TIP3      OH2             9.5575396015       -6.8646557466       -4.2433346635  SOLV      2497            0.0000000000
      7604      2508  TIP3      H1              9.2064896015       -7.7213557466       -4.0002946635  SOLV      2497            0.0000000000
      7605      2508  TIP3      H2             10.2838596015       -6.7219857466       -3.6364346635  SOLV      2497            0.0000000000
      7606      2509  TIP3      OH2            11.6769196015       -5.9197157466      -21.3635046635  SOLV      2498            0.0000000000
      7607      2509  TIP3      H1             11.9599596015       -6.7141957466      -20.9108146635  SOLV      2498            0.0000000000
      7608      2509  TIP3      H2             12.4167096015       -5.6866157466      -21.9243946635  SOLV      2498            0.0000000000
      7609      2510  TIP3      OH2            -1.7097203985      -10.3537957466       -3.6384746635  SOLV      2499            0.0000000000
      7610      2510  TIP3      H1             -1.5656703985      -11.2557257466       -3.9248046635  SOLV      2499            0.0000000000
      7611      2510  TIP3      H2             -2.4819803985      -10.0675857466       -4.1262446635  SOLV      2499            0.0000000000
      7612      2511  TIP3      OH2             2.6316496015      -10.0102257466      -21.5060146635  SOLV      2500            0.0000000000
      7613      2511  TIP3      H1              2.6960596015      -10.8042657466      -20.9753746635  SOLV      2500            0.0000000000
      7614      2511  TIP3      H2              3.2845696015      -10.1289457466      -22.1958146635  SOLV      2500            0.0000000000
      7615      2512  TIP3      OH2             4.9458896015      -10.3839857466       -4.2058346635  SOLV      2501            0.0000000000
      7616      2512  TIP3      H1              4.6172696015      -10.1131757466       -5.0630946635  SOLV      2501            0.0000000000
      7617      2512  TIP3      H2              5.0977096015      -11.3250057466       -4.2933346635  SOLV      2501            0.0000000000
      7618      2513  TIP3      OH2             7.9839896015       -8.9630557466      -21.7702146635  SOLV      2502            0.0000000000
      7619      2513  TIP3      H1              7.7153996015       -8.7828457466      -20.8693246635  SOLV      2502            0.0000000000
      7620      2513  TIP3      H2              7.7775496015       -9.8884357466      -21.9016346635  SOLV      2502            0.0000000000
      7621      2514  TIP3      OH2            10.6804096015      -10.4682557466       -6.8226046635  SOLV      2503            0.0000000000
      7622      2514  TIP3      H1             11.4258896015       -9.8798857466       -6.9422046635  SOLV      2503            0.0000000000
      7623      2514  TIP3      H2              9.9230896015       -9.8862857466       -6.7592946635  SOLV      2503            0.0000000000
      7624      2515  TIP3      OH2            -0.8770703985      -13.1534657466       -4.2185446635  SOLV      2504            0.0000000000
      7625      2515  TIP3      H1             -0.4689503985      -14.0108057466       -4.3394846635  SOLV      2504            0.0000000000
      7626      2515  TIP3      H2             -1.1373103985      -13.1393357466       -3.2975146635  SOLV      2504            0.0000000000
      7627      2516  TIP3      OH2             3.7810296015      -12.0376057466      -19.2002146635  SOLV      2505            0.0000000000
      7628      2516  TIP3      H1              3.3212296015      -12.5217757466      -18.5143646635  SOLV      2505            0.0000000000
      7629      2516  TIP3      H2              4.0358996015      -12.7060657466      -19.8361646635  SOLV      2505            0.0000000000
      7630      2517  TIP3      OH2             3.0699596015      -14.1448957466       -6.8442546635  SOLV      2506            0.0000000000
      7631      2517  TIP3      H1              2.4515696015      -13.4702357466       -6.5637846635  SOLV      2506            0.0000000000
      7632      2517  TIP3      H2              3.4140796015      -13.8235057466       -7.6776346635  SOLV      2506            0.0000000000
      7633      2518  TIP3      OH2             4.8520696015      -13.7944257466      -20.9378946635  SOLV      2507            0.0000000000
      7634      2518  TIP3      H1              4.6715696015      -13.9493057466      -21.8650646635  SOLV      2507            0.0000000000
      7635      2518  TIP3      H2              5.8021196015      -13.6865557466      -20.8931046635  SOLV      2507            0.0000000000
      7636      2519  TIP3      OH2             8.0897796015      -11.6733657466       -3.5667746635  SOLV      2508            0.0000000000
      7637      2519  TIP3      H1              9.0428996015      -11.5894557466       -3.5941746635  SOLV      2508            0.0000000000
      7638      2519  TIP3      H2              7.9292396015      -12.3851857466       -2.9472846635  SOLV      2508            0.0000000000
      7639      2520  TIP3      OH2            14.2418996015      -11.4400057466      -21.4920846635  SOLV      2509            0.0000000000
      7640      2520  TIP3      H1             13.9683796015      -11.8644557466      -22.3052546635  SOLV      2509            0.0000000000
      7641      2520  TIP3      H2             14.2813096015      -10.5085557466      -21.7090446635  SOLV      2509            0.0000000000
      7642      2521  TIP3      OH2             3.4093296015      -16.7898157466       -5.7619446635  SOLV      2510            0.0000000000
      7643      2521  TIP3      H1              3.5594196015      -17.5186857466       -6.3639746635  SOLV      2510            0.0000000000
      7644      2521  TIP3      H2              3.4115696015      -16.0126457466       -6.3207246635  SOLV      2510            0.0000000000
      7645      2522  TIP3      OH2             3.8218996015      -18.4202357466       -8.2692046635  SOLV      2511            0.0000000000
      7646      2522  TIP3      H1              4.3576496015      -17.9685657466       -8.9212746635  SOLV      2511            0.0000000000
      7647      2522  TIP3      H2              2.9698596015      -18.5282557466       -8.6917946635  SOLV      2511            0.0000000000
      7648      2523  TIP3      OH2             5.4037396015      -12.9806157466       -8.0296846635  SOLV      2512            0.0000000000
      7649      2523  TIP3      H1              6.1542196015      -13.1368657466       -8.6029046635  SOLV      2512            0.0000000000
      7650      2523  TIP3      H2              5.0645696015      -12.1289557466       -8.3051346635  SOLV      2512            0.0000000000
      7651      2524  TIP3      OH2             9.8193596015      -15.1654357466       -3.0011546635  SOLV      2513            0.0000000000
      7652      2524  TIP3      H1             10.0114896015      -16.0964957466       -3.1127046635  SOLV      2513            0.0000000000
      7653      2524  TIP3      H2             10.6769896015      -14.7404857466       -3.0116146635  SOLV      2513            0.0000000000
      7654      2525  TIP3      OH2            11.1360796015      -12.3769157466       -4.9238846635  SOLV      2514            0.0000000000
      7655      2525  TIP3      H1             10.8545796015      -11.6674557466       -5.5015046635  SOLV      2514            0.0000000000
      7656      2525  TIP3      H2             12.0785096015      -12.4496157466       -5.0747646635  SOLV      2514            0.0000000000
      7657      2526  TIP3      OH2             1.8879596015      -15.5914657466       -3.8503846635  SOLV      2515            0.0000000000
      7658      2526  TIP3      H1              1.1208596015      -16.1239857466       -4.0606246635  SOLV      2515            0.0000000000
      7659      2526  TIP3      H2              2.5668596015      -15.9014257466       -4.4497546635  SOLV      2515            0.0000000000
      7660      2527  TIP3      OH2             4.6274496015      -20.9636657466       -7.8378446635  SOLV      2516            0.0000000000
      7661      2527  TIP3      H1              4.5294096015      -20.0173457466       -7.9432246635  SOLV      2516            0.0000000000
      7662      2527  TIP3      H2              3.8850696015      -21.3362857466       -8.3134946635  SOLV      2516            0.0000000000
      7663      2528  TIP3      OH2             5.8914996015      -16.6421257466       -4.2740046635  SOLV      2517            0.0000000000
      7664      2528  TIP3      H1              5.6560396015      -16.8614557466       -3.3725146635  SOLV      2517            0.0000000000
      7665      2528  TIP3      H2              5.1081896015      -16.8490057466       -4.7837546635  SOLV      2517            0.0000000000
      7666      2529  TIP3      OH2             8.6071596015      -17.5147757466       -5.1986546635  SOLV      2518            0.0000000000
      7667      2529  TIP3      H1              7.6596996015      -17.4828057466       -5.0663246635  SOLV      2518            0.0000000000
      7668      2529  TIP3      H2              8.9198296015      -18.1400657466       -4.5448346635  SOLV      2518            0.0000000000
      7669      2530  TIP3      OH2            10.2413096015      -18.8806657466       -3.1934646635  SOLV      2519            0.0000000000
      7670      2530  TIP3      H1             10.1444896015      -19.8329357466       -3.1992746635  SOLV      2519            0.0000000000
      7671      2530  TIP3      H2              9.9196196015      -18.6119857466       -2.3329146635  SOLV      2519            0.0000000000
      7672      2531  TIP3      OH2             0.0682396015      -17.6710857466       -4.1459146635  SOLV      2520            0.0000000000
      7673      2531  TIP3      H1              0.2799796015      -18.3774757466       -4.7561646635  SOLV      2520            0.0000000000
      7674      2531  TIP3      H2             -0.0430103985      -18.1084857466       -3.3017946635  SOLV      2520            0.0000000000
      7675      2532  TIP3      OH2             4.8492596015      -21.6699257466       -5.1665646635  SOLV      2521            0.0000000000
      7676      2532  TIP3      H1              5.5610996015      -22.3097057466       -5.1806546635  SOLV      2521            0.0000000000
      7677      2532  TIP3      H2              4.7482996015      -21.4030957466       -6.0802546635  SOLV      2521            0.0000000000
      7678      2533  TIP3      OH2             5.2030096015      -19.9870857466       -3.1129346635  SOLV      2522            0.0000000000
      7679      2533  TIP3      H1              5.0712296015      -20.4627057466       -3.9330846635  SOLV      2522            0.0000000000
      7680      2533  TIP3      H2              4.6037496015      -19.2427257466       -3.1682246635  SOLV      2522            0.0000000000
      7681      2534  TIP3      OH2             4.7492396015       -3.1040557466      -19.9365346635  SOLV      2523            0.0000000000
      7682      2534  TIP3      H1              5.6823096015       -2.9461857466      -19.7926946635  SOLV      2523            0.0000000000
      7683      2534  TIP3      H2              4.4851196015       -2.4287557466      -20.5613846635  SOLV      2523            0.0000000000
      7684      2535  TIP3      OH2            -1.6822703985       -8.4676757466      -20.4537246635  SOLV      2524            0.0000000000
      7685      2535  TIP3      H1             -0.7683503985       -8.3887857466      -20.1803346635  SOLV      2524            0.0000000000
      7686      2535  TIP3      H2             -1.6749603985       -9.1547157466      -21.1201646635  SOLV      2524            0.0000000000
      7687      2536  TIP3      OH2            -3.0332103985       -3.0748257466      -15.3763346635  SOLV      2525            0.0000000000
      7688      2536  TIP3      H1             -3.6805003985       -3.5366557466      -15.9092146635  SOLV      2525            0.0000000000
      7689      2536  TIP3      H2             -2.6787503985       -3.7464957466      -14.7937146635  SOLV      2525            0.0000000000
      7690      2537  TIP3      OH2            -2.1632903985       -4.9941257466      -13.5717146635  SOLV      2526            0.0000000000
      7691      2537  TIP3      H1             -2.4976103985       -5.8743957466      -13.3996946635  SOLV      2526            0.0000000000
      7692      2537  TIP3      H2             -1.9410503985       -4.6486257466      -12.7071546635  SOLV      2526            0.0000000000
      7693      2538  TIP3      OH2            15.3851896015       -4.1844857466      -10.5912346635  SOLV      2527            0.0000000000
      7694      2538  TIP3      H1             15.3638596015       -3.9996457466       -9.6522946635  SOLV      2527            0.0000000000
      7695      2538  TIP3      H2             16.0758096015       -3.6160857466      -10.9320946635  SOLV      2527            0.0000000000
      7696      2539  TIP3      OH2            14.9484796015       -4.6173757466       -7.6693246635  SOLV      2528            0.0000000000
      7697      2539  TIP3      H1             14.4613496015       -5.3529657466       -8.0405846635  SOLV      2528            0.0000000000
      7698      2539  TIP3      H2             15.4977496015       -5.0109857466       -6.9913846635  SOLV      2528            0.0000000000
      7699      2540  TIP3      OH2            13.3992096015       -8.8275657466       -3.0312946635  SOLV      2529            0.0000000000
      7700      2540  TIP3      H1             12.5333196015       -8.9325957466       -2.6370646635  SOLV      2529            0.0000000000
      7701      2540  TIP3      H2             13.7757996015       -8.0692357466       -2.5848246635  SOLV      2529            0.0000000000
      7702      2541  TIP3      OH2            14.7001796015      -10.5711957466      -17.5170446635  SOLV      2530            0.0000000000
      7703      2541  TIP3      H1             15.5503196015      -10.1501057466      -17.3898846635  SOLV      2530            0.0000000000
      7704      2541  TIP3      H2             14.7056896015      -11.3111857466      -16.9099046635  SOLV      2530            0.0000000000
      7705      2542  TIP3      OH2            15.0947396015      -12.5174557466      -15.6934746635  SOLV      2531            0.0000000000
      7706      2542  TIP3      H1             14.3681996015      -12.9971957466      -15.2957146635  SOLV      2531            0.0000000000
      7707      2542  TIP3      H2             15.6760696015      -12.3119857466      -14.9613146635  SOLV      2531            0.0000000000
      7708      2543  TIP3      OH2            14.8538596015       -9.7327057466      -10.7457146635  SOLV      2532            0.0000000000
      7709      2543  TIP3      H1             15.6872796015      -10.1107057466      -11.0263546635  SOLV      2532            0.0000000000
      7710      2543  TIP3      H2             14.9658896015       -8.7895857466      -10.8648046635  SOLV      2532            0.0000000000
      7711      2544  TIP3      OH2            13.3400896015       -6.8549557466       -8.4388746635  SOLV      2533            0.0000000000
      7712      2544  TIP3      H1             12.6926196015       -6.5298057466       -7.8133546635  SOLV      2533            0.0000000000
      7713      2544  TIP3      H2             12.8224896015       -7.2951857466       -9.1130446635  SOLV      2533            0.0000000000
      7714      2545  TIP3      OH2            15.3630496015      -12.6166057466      -19.3023446635  SOLV      2534            0.0000000000
      7715      2545  TIP3      H1             14.8411596015      -12.2601957466      -20.0212546635  SOLV      2534            0.0000000000
      7716      2545  TIP3      H2             15.3299696015      -11.9418257466      -18.6242546635  SOLV      2534            0.0000000000
      7717      2546  TIP3      OH2            13.7119496015      -15.3770457466      -20.7516346635  SOLV      2535            0.0000000000
      7718      2546  TIP3      H1             13.8083896015      -14.7103457466      -21.4316646635  SOLV      2535            0.0000000000
      7719      2546  TIP3      H2             13.5719096015      -16.1924157466      -21.2330846635  SOLV      2535            0.0000000000
      7720      2547  TIP3      OH2            12.8814196015      -13.9968057466      -15.1306046635  SOLV      2536            0.0000000000
      7721      2547  TIP3      H1             12.7312996015      -14.9419457466      -15.1508246635  SOLV      2536            0.0000000000
      7722      2547  TIP3      H2             12.5278696015      -13.7156657466      -14.2866946635  SOLV      2536            0.0000000000
      7723      2548  TIP3      OH2            -2.0833403985      -11.9185857466      -11.1202246635  SOLV      2537            0.0000000000
      7724      2548  TIP3      H1             -1.8990503985      -12.0004157466      -12.0559346635  SOLV      2537            0.0000000000
      7725      2548  TIP3      H2             -1.2340503985      -12.0428857466      -10.6965846635  SOLV      2537            0.0000000000
      7726      2549  TIP3      OH2            13.7377096015      -12.0264757466       -5.4917746635  SOLV      2538            0.0000000000
      7727      2549  TIP3      H1             14.3204396015      -12.7612457466       -5.3000546635  SOLV      2538            0.0000000000
      7728      2549  TIP3      H2             14.3016396015      -11.2544457466       -5.4451946635  SOLV      2538            0.0000000000
      7729      2550  TIP3      OH2            15.2344196015      -14.1238957466       -4.8072346635  SOLV      2539            0.0000000000
      7730      2550  TIP3      H1             14.3710896015      -14.5026857466       -4.9727646635  SOLV      2539            0.0000000000
      7731      2550  TIP3      H2             15.8387896015      -14.8624157466       -4.8816546635  SOLV      2539            0.0000000000
      7732      2551  TIP3      OH2            12.9593296015      -17.9690657466      -21.6340846635  SOLV      2540            0.0000000000
      7733      2551  TIP3      H1             13.5699096015      -18.3403857466      -20.9972646635  SOLV      2540            0.0000000000
      7734      2551  TIP3      H2             12.1224796015      -18.3903757466      -21.4380846635  SOLV      2540            0.0000000000
      7735      2552  TIP3      OH2            12.5918996015      -16.4142257466      -16.6680946635  SOLV      2541            0.0000000000
      7736      2552  TIP3      H1             12.8716096015      -17.3211857466      -16.5439246635  SOLV      2541            0.0000000000
      7737      2552  TIP3      H2             13.3510696015      -15.9800757466      -17.0571746635  SOLV      2541            0.0000000000
      7738      2553  TIP3      OH2            13.2037296015      -15.8324857466      -11.2322046635  SOLV      2542            0.0000000000
      7739      2553  TIP3      H1             14.1365296015      -15.6204957466      -11.2666046635  SOLV      2542            0.0000000000
      7740      2553  TIP3      H2             12.9684796015      -15.7312757466      -10.3099046635  SOLV      2542            0.0000000000
      7741      2554  TIP3      OH2            13.2329196015      -15.0959557466       -8.4562646635  SOLV      2543            0.0000000000
      7742      2554  TIP3      H1             12.3900496015      -14.8279157466       -8.0902846635  SOLV      2543            0.0000000000
      7743      2554  TIP3      H2             13.6753496015      -14.2737657466       -8.6671546635  SOLV      2543            0.0000000000
      7744      2555  TIP3      OH2            -2.4858603985      -16.6480857466       -4.9793446635  SOLV      2544            0.0000000000
      7745      2555  TIP3      H1             -1.5663703985      -16.7702557466       -4.7430346635  SOLV      2544            0.0000000000
      7746      2555  TIP3      H2             -2.9354103985      -17.3981157466       -4.5899946635  SOLV      2544            0.0000000000
      7747      2556  TIP3      OH2            15.5160796015      -21.1159357466       -3.1027646635  SOLV      2545            0.0000000000
      7748      2556  TIP3      H1             15.8657796015      -21.7695857466       -3.7082946635  SOLV      2545            0.0000000000
      7749      2556  TIP3      H2             15.6630296015      -20.2785257466       -3.5425046635  SOLV      2545            0.0000000000
      7750      2557  TIP3      OH2            13.2053796015      -19.1512957466      -16.6198946635  SOLV      2546            0.0000000000
      7751      2557  TIP3      H1             13.3878796015      -19.6001457466      -15.7943946635  SOLV      2546            0.0000000000
      7752      2557  TIP3      H2             12.6056696015      -19.7358557466      -17.0834346635  SOLV      2546            0.0000000000
      7753      2558  TIP3      OH2            -1.2646103985      -18.3359257466      -12.0880546635  SOLV      2547            0.0000000000
      7754      2558  TIP3      H1             -0.8194503985      -19.1276757466      -11.7860846635  SOLV      2547            0.0000000000
      7755      2558  TIP3      H2             -0.7983103985      -17.6194057466      -11.6574946635  SOLV      2547            0.0000000000
      7756      2559  TIP3      OH2            -2.9605803985      -15.3366257466      -11.0190346635  SOLV      2548            0.0000000000
      7757      2559  TIP3      H1             -2.4686003985      -15.5575757466      -11.8098346635  SOLV      2548            0.0000000000
      7758      2559  TIP3      H2             -2.5984903985      -14.4962857466      -10.7380846635  SOLV      2548            0.0000000000
      7759      2560  TIP3      OH2            15.0357996015      -19.0064757466       -4.7536346635  SOLV      2549            0.0000000000
      7760      2560  TIP3      H1             14.1183696015      -18.7357657466       -4.7892846635  SOLV      2549            0.0000000000
      7761      2560  TIP3      H2             15.1587396015      -19.5416357466       -5.5376646635  SOLV      2549            0.0000000000
      7762      2561  TIP3      OH2            15.0719996015      -19.0834857466      -20.0918646635  SOLV      2550            0.0000000000
      7763      2561  TIP3      H1             15.4842596015      -19.8049157466      -20.5670646635  SOLV      2550            0.0000000000
      7764      2561  TIP3      H2             15.7536496015      -18.4140257466      -20.0334346635  SOLV      2550            0.0000000000
      7765      2562  TIP3      OH2            -2.6469303985      -19.0787157466      -16.9647946635  SOLV      2551            0.0000000000
      7766      2562  TIP3      H1             -3.5720903985      -18.8700557466      -17.0942446635  SOLV      2551            0.0000000000
      7767      2562  TIP3      H2             -2.1929403985      -18.5946357466      -17.6545646635  SOLV      2551            0.0000000000
      7768      2563  TIP3      OH2            12.1237896015       -4.0945457466      -15.0190546635  SOLV      2552            0.0000000000
      7769      2563  TIP3      H1             12.7760796015       -4.4423357466      -15.6271446635  SOLV      2552            0.0000000000
      7770      2563  TIP3      H2             12.6341696015       -3.6062257466      -14.3730846635  SOLV      2552            0.0000000000
      7771      2564  TIP3      OH2            -2.6833903985      -20.3408157466       -8.6205446635  SOLV      2553            0.0000000000
      7772      2564  TIP3      H1             -3.3483403985      -20.5867857466       -7.9774546635  SOLV      2553            0.0000000000
      7773      2564  TIP3      H2             -3.1262603985      -19.7187757466       -9.1977446635  SOLV      2553            0.0000000000
      7774      2565  TIP3      OH2            -0.4914603985       -7.1654057466       -4.4759646635  SOLV      2554            0.0000000000
      7775      2565  TIP3      H1             -1.3122103985       -6.9907557466       -4.9364946635  SOLV      2554            0.0000000000
      7776      2565  TIP3      H2             -0.7436803985       -7.2389357466       -3.5555246635  SOLV      2554            0.0000000000
      7777      2566  TIP3      OH2             2.4628296015       -6.1912857466       -8.2175646635  SOLV      2555            0.0000000000
      7778      2566  TIP3      H1              2.0379396015       -5.3814357466       -8.5001046635  SOLV      2555            0.0000000000
      7779      2566  TIP3      H2              3.3671096015       -6.1058757466       -8.5195846635  SOLV      2555            0.0000000000
      7780      2567  TIP3      OH2             6.7739696015       -4.7922857466       -5.2581946635  SOLV      2556            0.0000000000
      7781      2567  TIP3      H1              6.9587196015       -5.1256757466       -4.3801646635  SOLV      2556            0.0000000000
      7782      2567  TIP3      H2              7.6204196015       -4.4824257466       -5.5802746635  SOLV      2556            0.0000000000
      7783      2568  TIP3      OH2             9.1190096015       -3.5063957466       -6.0140546635  SOLV      2557            0.0000000000
      7784      2568  TIP3      H1              9.7958996015       -4.1391657466       -6.2541346635  SOLV      2557            0.0000000000
      7785      2568  TIP3      H2              9.4408896015       -3.1053457466       -5.2067246635  SOLV      2557            0.0000000000
      7786      2569  TIP3      OH2            14.0363896015      -20.9168457466       -6.9345546635  SOLV      2558            0.0000000000
      7787      2569  TIP3      H1             13.2237396015      -20.5918157466       -7.3220846635  SOLV      2558            0.0000000000
      7788      2569  TIP3      H2             14.2692396015      -21.6769957466       -7.4676446635  SOLV      2558            0.0000000000
      7789      2570  TIP3      OH2            -0.1355003985       -2.9348957466       -8.1700346635  SOLV      2559            0.0000000000
      7790      2570  TIP3      H1             -0.8558603985       -2.4947957466       -8.6212646635  SOLV      2559            0.0000000000
      7791      2570  TIP3      H2             -0.5011003985       -3.1854257466       -7.3216346635  SOLV      2559            0.0000000000
      7792      2571  TIP3      OH2             2.3317596015       -3.3345057466       -9.1403146635  SOLV      2560            0.0000000000
      7793      2571  TIP3      H1              1.4669796015       -3.2626557466       -8.7363046635  SOLV      2560            0.0000000000
      7794      2571  TIP3      H2              2.2766596015       -2.7877757466       -9.9240646635  SOLV      2560            0.0000000000
      7795      2572  TIP3      OH2             7.0423196015       -3.4466157466       -9.9647146635  SOLV      2561            0.0000000000
      7796      2572  TIP3      H1              6.5857196015       -2.9176457466      -10.6188746635  SOLV      2561            0.0000000000
      7797      2572  TIP3      H2              7.2051196015       -2.8434757466       -9.2394846635  SOLV      2561            0.0000000000
      7798      2573  TIP3      OH2             9.3699496015       -4.5686557466       -9.0196846635  SOLV      2562            0.0000000000
      7799      2573  TIP3      H1              8.4653196015       -4.4036357466       -9.2854746635  SOLV      2562            0.0000000000
      7800      2573  TIP3      H2              9.7988096015       -3.7154357466       -9.0853446635  SOLV      2562            0.0000000000
      7801      2574  TIP3      OH2            -0.7206903985       -4.3116457466      -11.2598546635  SOLV      2563            0.0000000000
      7802      2574  TIP3      H1             -0.7390903985       -4.7371357466      -10.4026246635  SOLV      2563            0.0000000000
      7803      2574  TIP3      H2              0.0840996015       -4.6301457466      -11.6686346635  SOLV      2563            0.0000000000
      7804      2575  TIP3      OH2             1.4206196015       -5.6017757466      -12.6048646635  SOLV      2564            0.0000000000
      7805      2575  TIP3      H1              1.2016896015       -6.5180357466      -12.4352646635  SOLV      2564            0.0000000000
      7806      2575  TIP3      H2              2.2448396015       -5.4617357466      -12.1387246635  SOLV      2564            0.0000000000
      7807      2576  TIP3      OH2             3.9578696015       -5.1318457466      -11.7560646635  SOLV      2565            0.0000000000
      7808      2576  TIP3      H1              4.1704396015       -6.0199457466      -12.0429746635  SOLV      2565            0.0000000000
      7809      2576  TIP3      H2              4.0223796015       -5.1660757466      -10.8016646635  SOLV      2565            0.0000000000
      7810      2577  TIP3      OH2             7.4662396015      -19.4677857466      -12.6117346635  SOLV      2566            0.0000000000
      7811      2577  TIP3      H1              6.7919196015      -20.0972257466      -12.3561546635  SOLV      2566            0.0000000000
      7812      2577  TIP3      H2              8.0301596015      -19.9518957466      -13.2149446635  SOLV      2566            0.0000000000
      7813      2578  TIP3      OH2            12.6089596015      -21.3603857466      -12.4990246635  SOLV      2567            0.0000000000
      7814      2578  TIP3      H1             13.2127196015      -20.8128457466      -13.0009246635  SOLV      2567            0.0000000000
      7815      2578  TIP3      H2             11.7391596015      -21.0413457466      -12.7396146635  SOLV      2567            0.0000000000
      7816      2579  TIP3      OH2            14.3359996015      -20.2215157466      -14.1659346635  SOLV      2568            0.0000000000
      7817      2579  TIP3      H1             14.9477496015      -20.7359457466      -14.6925746635  SOLV      2568            0.0000000000
      7818      2579  TIP3      H2             14.7183396015      -19.3443057466      -14.1424946635  SOLV      2568            0.0000000000
      7819      2580  TIP3      OH2            -0.2070103985      -20.8337557466      -14.7897446635  SOLV      2569            0.0000000000
      7820      2580  TIP3      H1             -0.9840303985      -21.0682657466      -15.2971546635  SOLV      2569            0.0000000000
      7821      2580  TIP3      H2              0.3233496015      -21.6305457466      -14.7809446635  SOLV      2569            0.0000000000
      7822      2581  TIP3      OH2            -1.3706703985      -21.0359457466      -18.9861346635  SOLV      2570            0.0000000000
      7823      2581  TIP3      H1             -0.9316003985      -20.4248957466      -19.5777846635  SOLV      2570            0.0000000000
      7824      2581  TIP3      H2             -2.0044303985      -20.4975357466      -18.5121346635  SOLV      2570            0.0000000000
      7825      2582  TIP3      OH2             4.3722496015      -20.9070457466      -14.9764346635  SOLV      2571            0.0000000000
      7826      2582  TIP3      H1              5.2465896015      -20.5186157466      -15.0060046635  SOLV      2571            0.0000000000
      7827      2582  TIP3      H2              4.2363296015      -21.1222657466      -14.0537146635  SOLV      2571            0.0000000000
      7828      2583  TIP3      OH2             9.9290896015      -20.8770657466      -13.3272646635  SOLV      2572            0.0000000000
      7829      2583  TIP3      H1             10.0052496015      -20.7819057466      -14.2766646635  SOLV      2572            0.0000000000
      7830      2583  TIP3      H2              9.6540096015      -21.7847757466      -13.1983546635  SOLV      2572            0.0000000000
      7831      2584  TIP3      OH2            11.2823496015      -20.8512857466      -17.6347646635  SOLV      2573            0.0000000000
      7832      2584  TIP3      H1             10.5794596015      -20.2363657466      -17.8446246635  SOLV      2573            0.0000000000
      7833      2584  TIP3      H2             10.8374896015      -21.6886157466      -17.5036746635  SOLV      2573            0.0000000000
      7834      2585  TIP3      OH2            -1.4697203985       -5.0877257466      -18.0886246635  SOLV      2574            0.0000000000
      7835      2585  TIP3      H1             -2.1547303985       -5.1258357466      -18.7561146635  SOLV      2574            0.0000000000
      7836      2585  TIP3      H2             -1.4660003985       -4.1749657466      -17.8004146635  SOLV      2574            0.0000000000
      7837      2586  TIP3      OH2             0.4902396015      -19.1197957466      -20.5437246635  SOLV      2575            0.0000000000
      7838      2586  TIP3      H1              0.9815796015      -19.7495557466      -21.0711746635  SOLV      2575            0.0000000000
      7839      2586  TIP3      H2              1.1138696015      -18.8238557466      -19.8806046635  SOLV      2575            0.0000000000
      7840      2587  TIP3      OH2             5.5162496015      -18.8266457466      -18.0866746635  SOLV      2576            0.0000000000
      7841      2587  TIP3      H1              5.6943796015      -19.4733257466      -17.4038146635  SOLV      2576            0.0000000000
      7842      2587  TIP3      H2              5.4628696015      -17.9928757466      -17.6195646635  SOLV      2576            0.0000000000
      7843      2588  TIP3      OH2             7.3946296015       -3.8782357466      -19.6910046635  SOLV      2577            0.0000000000
      7844      2588  TIP3      H1              8.2606496015       -3.5114957466      -19.8691846635  SOLV      2577            0.0000000000
      7845      2588  TIP3      H2              7.1479096015       -4.3174357466      -20.5049246635  SOLV      2577            0.0000000000
      7846      2589  TIP3      OH2            14.1035896015       -4.3152057466      -17.0118946635  SOLV      2578            0.0000000000
      7847      2589  TIP3      H1             13.9092996015       -5.0629957466      -17.5769346635  SOLV      2578            0.0000000000
      7848      2589  TIP3      H2             14.0645996015       -3.5571957466      -17.5951046635  SOLV      2578            0.0000000000
      7849      2590  TIP3      OH2            -0.2492103985      -20.3195657466       -5.2721246635  SOLV      2579            0.0000000000
      7850      2590  TIP3      H1             -0.6153903985      -21.0853057466       -4.8296546635  SOLV      2579            0.0000000000
      7851      2590  TIP3      H2              0.6636396015      -20.2905457466       -4.9856146635  SOLV      2579            0.0000000000
      7852      2591  TIP3      OH2             1.7238696015      -20.9691257466       -3.7364146635  SOLV      2580            0.0000000000
      7853      2591  TIP3      H1              2.6222296015      -21.2431057466       -3.9210746635  SOLV      2580            0.0000000000
      7854      2591  TIP3      H2              1.3371796015      -21.7115257466       -3.2721546635  SOLV      2580            0.0000000000
      7855      2592  TIP3      OH2             0.3483996015       -4.1676457466      -21.0634146635  SOLV      2581            0.0000000000
      7856      2592  TIP3      H1              0.0808596015       -3.8813557466      -20.1901046635  SOLV      2581            0.0000000000
      7857      2592  TIP3      H2              1.1196596015       -4.7137257466      -20.9111646635  SOLV      2581            0.0000000000
      7858      2593  TIP3      OH2            10.1450996015      -21.6365957466       -3.5541346635  SOLV      2582            0.0000000000
      7859      2593  TIP3      H1             10.2218196015      -22.0625257466       -2.7003646635  SOLV      2582            0.0000000000
      7860      2593  TIP3      H2             11.0387596015      -21.6231257466       -3.8967846635  SOLV      2582            0.0000000000
      7861      2594  TIP3      OH2            13.3212096015       -5.5639657466       -4.8617146635  SOLV      2583            0.0000000000
      7862      2594  TIP3      H1             12.5393996015       -5.7501657466       -5.3816546635  SOLV      2583            0.0000000000
      7863      2594  TIP3      H2             13.2491996015       -4.6345357466       -4.6444646635  SOLV      2583            0.0000000000
      7864      2595  TIP3      OH2            27.7272496015      -11.6775257466      -14.8309946635  SOLV      2584            0.0000000000
      7865      2595  TIP3      H1             27.8163596015      -10.7337057466      -14.9632846635  SOLV      2584            0.0000000000
      7866      2595  TIP3      H2             27.0890096015      -11.9528857466      -15.4890546635  SOLV      2584            0.0000000000
      7867      2596  TIP3      OH2            26.6603796015      -12.4224557466      -11.4121746635  SOLV      2585            0.0000000000
      7868      2596  TIP3      H1             26.6221296015      -13.0688257466      -10.7072146635  SOLV      2585            0.0000000000
      7869      2596  TIP3      H2             26.3380296015      -12.8890157466      -12.1833046635  SOLV      2585            0.0000000000
      7870      2597  TIP3      OH2            19.0288796015      -12.8082457466       -9.8191846635  SOLV      2586            0.0000000000
      7871      2597  TIP3      H1             19.0700896015      -13.4339157466       -9.0959446635  SOLV      2586            0.0000000000
      7872      2597  TIP3      H2             19.7316496015      -12.1843857466       -9.6371446635  SOLV      2586            0.0000000000
      7873      2598  TIP3      OH2            30.3663996015       -9.4834157466      -13.1106646635  SOLV      2587            0.0000000000
      7874      2598  TIP3      H1             29.9256696015      -10.2038157466      -12.6601046635  SOLV      2587            0.0000000000
      7875      2598  TIP3      H2             30.3533696015       -8.7626957466      -12.4808946635  SOLV      2587            0.0000000000
      7876      2599  TIP3      OH2            19.9521896015       -8.3583557466      -11.2842746635  SOLV      2588            0.0000000000
      7877      2599  TIP3      H1             19.5827096015       -9.1603057466      -11.6538446635  SOLV      2588            0.0000000000
      7878      2599  TIP3      H2             20.8932996015       -8.5268657466      -11.2379346635  SOLV      2588            0.0000000000
      7879      2600  TIP3      OH2            16.5622396015      -14.6980957466      -15.8913946635  SOLV      2589            0.0000000000
      7880      2600  TIP3      H1             16.1145796015      -13.8522257466      -15.9097446635  SOLV      2589            0.0000000000
      7881      2600  TIP3      H2             16.0013596015      -15.2776757466      -16.4068846635  SOLV      2589            0.0000000000
      7882      2601  TIP3      OH2            17.2728496015      -12.5361357466      -13.7655946635  SOLV      2590            0.0000000000
      7883      2601  TIP3      H1             17.4861996015      -13.3059757466      -13.2382946635  SOLV      2590            0.0000000000
      7884      2601  TIP3      H2             18.0106096015      -12.4464657466      -14.3688346635  SOLV      2590            0.0000000000
      7885      2602  TIP3      OH2            27.4779496015       -4.3792457466      -12.8986246635  SOLV      2591            0.0000000000
      7886      2602  TIP3      H1             28.0975896015       -5.0557757466      -13.1717046635  SOLV      2591            0.0000000000
      7887      2602  TIP3      H2             27.2696896015       -4.5971657466      -11.9901346635  SOLV      2591            0.0000000000
      7888      2603  TIP3      OH2            25.0498196015       -9.9903157466      -11.0060746635  SOLV      2592            0.0000000000
      7889      2603  TIP3      H1             25.3536096015      -10.6761757466      -11.6006646635  SOLV      2592            0.0000000000
      7890      2603  TIP3      H2             25.7712196015       -9.8714457466      -10.3882746635  SOLV      2592            0.0000000000
      7891      2604  TIP3      OH2            28.1905196015      -15.5960757466      -10.6785946635  SOLV      2593            0.0000000000
      7892      2604  TIP3      H1             28.3331096015      -16.5423757466      -10.6584346635  SOLV      2593            0.0000000000
      7893      2604  TIP3      H2             28.0844196015      -15.3890957466      -11.6071046635  SOLV      2593            0.0000000000
      7894      2605  TIP3      OH2            21.3453496015      -17.4944357466      -13.4061146635  SOLV      2594            0.0000000000
      7895      2605  TIP3      H1             21.3884596015      -16.6345857466      -13.8244846635  SOLV      2594            0.0000000000
      7896      2605  TIP3      H2             20.8877596015      -18.0469657466      -14.0397946635  SOLV      2594            0.0000000000
      7897      2606  TIP3      OH2            29.0676196015      -17.3638757466      -15.0052846635  SOLV      2595            0.0000000000
      7898      2606  TIP3      H1             29.7140496015      -17.6925557466      -14.3805246635  SOLV      2595            0.0000000000
      7899      2606  TIP3      H2             29.5775596015      -16.8459757466      -15.6281446635  SOLV      2595            0.0000000000
      7900      2607  TIP3      OH2            17.9654996015      -15.0978557466      -12.6439746635  SOLV      2596            0.0000000000
      7901      2607  TIP3      H1             18.6191596015      -15.6476857466      -12.2119646635  SOLV      2596            0.0000000000
      7902      2607  TIP3      H2             17.9894296015      -15.3719557466      -13.5607746635  SOLV      2596            0.0000000000
      7903      2608  TIP3      OH2            23.1219496015      -13.5477257466      -13.4288246635  SOLV      2597            0.0000000000
      7904      2608  TIP3      H1             23.7380496015      -14.0741857466      -12.9194246635  SOLV      2597            0.0000000000
      7905      2608  TIP3      H2             22.5358296015      -14.1878557466      -13.8324646635  SOLV      2597            0.0000000000
      7906      2609  TIP3      OH2            20.1555396015      -18.5765957466       -9.3320346635  SOLV      2598            0.0000000000
      7907      2609  TIP3      H1             19.9367096015      -18.0465357466      -10.0984346635  SOLV      2598            0.0000000000
      7908      2609  TIP3      H2             19.4876296015      -18.3500457466       -8.6848946635  SOLV      2598            0.0000000000
      7909      2610  TIP3      OH2            27.5245196015       -9.0764857466      -15.7881246635  SOLV      2599            0.0000000000
      7910      2610  TIP3      H1             27.2290296015       -9.3992557466      -16.6394346635  SOLV      2599            0.0000000000
      7911      2610  TIP3      H2             27.2002996015       -8.1768157466      -15.7468646635  SOLV      2599            0.0000000000
      7912      2611  TIP3      OH2            22.7246796015      -10.9010257466       -9.0446646635  SOLV      2600            0.0000000000
      7913      2611  TIP3      H1             21.9845896015      -10.3028757466       -8.9411446635  SOLV      2600            0.0000000000
      7914      2611  TIP3      H2             23.4386296015      -10.3470657466       -9.3603046635  SOLV      2600            0.0000000000
      7915      2612  TIP3      OH2            30.8314596015      -18.0729457466      -13.0246946635  SOLV      2601            0.0000000000
      7916      2612  TIP3      H1             30.6162596015      -18.8386057466      -12.4920946635  SOLV      2601            0.0000000000
      7917      2612  TIP3      H2             31.4871996015      -17.6004857466      -12.5118446635  SOLV      2601            0.0000000000
      7918      2613  TIP3      OH2            19.7492696015      -16.6844157466      -11.3798146635  SOLV      2602            0.0000000000
      7919      2613  TIP3      H1             20.3628996015      -16.0516557466      -11.0065746635  SOLV      2602            0.0000000000
      7920      2613  TIP3      H2             20.2613396015      -17.1569157466      -12.0361246635  SOLV      2602            0.0000000000
      7921      2614  TIP3      OH2            21.1321096015       -8.9367257466       -8.2575146635  SOLV      2603            0.0000000000
      7922      2614  TIP3      H1             21.1268696015       -8.0573757466       -8.6355846635  SOLV      2603            0.0000000000
      7923      2614  TIP3      H2             20.2785196015       -9.0203157466       -7.8325246635  SOLV      2603            0.0000000000
      7924      2615  TIP3      OH2            17.2531996015       -9.2659357466      -17.4755846635  SOLV      2604            0.0000000000
      7925      2615  TIP3      H1             16.9812896015       -9.0368357466      -18.3642946635  SOLV      2604            0.0000000000
      7926      2615  TIP3      H2             17.2987696015       -8.4280557466      -17.0150546635  SOLV      2604            0.0000000000
      7927      2616  TIP3      OH2            30.8781696015       -7.6443457466      -10.7627346635  SOLV      2605            0.0000000000
      7928      2616  TIP3      H1             29.9365396015       -7.5859557466      -10.6010446635  SOLV      2605            0.0000000000
      7929      2616  TIP3      H2             31.1547796015       -6.7382957466      -10.8997646635  SOLV      2605            0.0000000000
      7930      2617  TIP3      OH2            31.1788696015      -19.3578157466       -9.3453446635  SOLV      2606            0.0000000000
      7931      2617  TIP3      H1             30.4427896015      -18.7471057466       -9.3832146635  SOLV      2606            0.0000000000
      7932      2617  TIP3      H2             31.8622696015      -18.9429157466       -9.8717046635  SOLV      2606            0.0000000000
      7933      2618  TIP3      OH2            24.1820096015      -21.2710857466      -11.8795446635  SOLV      2607            0.0000000000
      7934      2618  TIP3      H1             24.0644296015      -22.2194857466      -11.9337146635  SOLV      2607            0.0000000000
      7935      2618  TIP3      H2             23.3270196015      -20.9384757466      -11.6064346635  SOLV      2607            0.0000000000
      7936      2619  TIP3      OH2            29.1302896015       -5.8629957466      -14.1375746635  SOLV      2608            0.0000000000
      7937      2619  TIP3      H1             29.5555196015       -6.5702057466      -14.6226146635  SOLV      2608            0.0000000000
      7938      2619  TIP3      H2             29.4472896015       -5.0617257466      -14.5543546635  SOLV      2608            0.0000000000
      7939      2620  TIP3      OH2            30.2899396015       -7.9621457466      -15.6289146635  SOLV      2609            0.0000000000
      7940      2620  TIP3      H1             30.0324196015       -8.6521357466      -16.2403246635  SOLV      2609            0.0000000000
      7941      2620  TIP3      H2             30.3610196015       -8.4050257466      -14.7833246635  SOLV      2609            0.0000000000
      7942      2621  TIP3      OH2            31.9759596015       -9.3954757466       -7.1515646635  SOLV      2610            0.0000000000
      7943      2621  TIP3      H1             32.1155896015       -9.9872257466       -7.8908646635  SOLV      2610            0.0000000000
      7944      2621  TIP3      H2             32.1432396015       -8.5228857466       -7.5076846635  SOLV      2610            0.0000000000
      7945      2622  TIP3      OH2            26.4484996015      -12.4335257466      -17.3789646635  SOLV      2611            0.0000000000
      7946      2622  TIP3      H1             25.7370496015      -11.8985557466      -17.7309146635  SOLV      2611            0.0000000000
      7947      2622  TIP3      H2             27.1394596015      -12.3783157466      -18.0390746635  SOLV      2611            0.0000000000
      7948      2623  TIP3      OH2            26.5024196015      -13.9760957466      -20.3404646635  SOLV      2612            0.0000000000
      7949      2623  TIP3      H1             27.2034096015      -13.9534057466      -19.6890646635  SOLV      2612            0.0000000000
      7950      2623  TIP3      H2             26.8047096015      -14.6041257466      -20.9965346635  SOLV      2612            0.0000000000
      7951      2624  TIP3      OH2            33.8178896015      -13.0556757466       -9.0855246635  SOLV      2613            0.0000000000
      7952      2624  TIP3      H1             33.1652996015      -12.3611157466       -8.9964346635  SOLV      2613            0.0000000000
      7953      2624  TIP3      H2             34.2829196015      -12.8455857466       -9.8953646635  SOLV      2613            0.0000000000
      7954      2625  TIP3      OH2            29.8542696015      -12.2241957466      -16.4273746635  SOLV      2614            0.0000000000
      7955      2625  TIP3      H1             29.1223696015      -11.9958257466      -15.8543146635  SOLV      2614            0.0000000000
      7956      2625  TIP3      H2             30.3014896015      -12.9379257466      -15.9726246635  SOLV      2614            0.0000000000
      7957      2626  TIP3      OH2            29.7516196015      -14.0499357466       -7.3596746635  SOLV      2615            0.0000000000
      7958      2626  TIP3      H1             29.8315296015      -13.2864957466       -6.7878246635  SOLV      2615            0.0000000000
      7959      2626  TIP3      H2             29.1503896015      -13.7706957466       -8.0501646635  SOLV      2615            0.0000000000
      7960      2627  TIP3      OH2            21.4996396015      -11.5935757466      -14.5448746635  SOLV      2616            0.0000000000
      7961      2627  TIP3      H1             21.1691596015      -11.9642357466      -15.3631746635  SOLV      2616            0.0000000000
      7962      2627  TIP3      H2             22.0880496015      -12.2641757466      -14.1980446635  SOLV      2616            0.0000000000
      7963      2628  TIP3      OH2            22.8663896015       -8.1655157466      -11.8636546635  SOLV      2617            0.0000000000
      7964      2628  TIP3      H1             22.7715196015       -8.7442057466      -12.6201946635  SOLV      2617            0.0000000000
      7965      2628  TIP3      H2             23.5957496015       -8.5369457466      -11.3673746635  SOLV      2617            0.0000000000
      7966      2629  TIP3      OH2            21.8661896015      -12.8250157466      -10.9113746635  SOLV      2618            0.0000000000
      7967      2629  TIP3      H1             22.4314396015      -12.7035957466      -11.6742546635  SOLV      2618            0.0000000000
      7968      2629  TIP3      H2             22.1850796015      -12.1875157466      -10.2725246635  SOLV      2618            0.0000000000
      7969      2630  TIP3      OH2            28.1754096015       -7.3218257466      -10.1773246635  SOLV      2619            0.0000000000
      7970      2630  TIP3      H1             27.9350696015       -6.6595157466       -9.5294046635  SOLV      2619            0.0000000000
      7971      2630  TIP3      H2             27.9772296015       -8.1563057466       -9.7523646635  SOLV      2619            0.0000000000
      7972      2631  TIP3      OH2            22.7462596015       -8.4257457466       -6.1941846635  SOLV      2620            0.0000000000
      7973      2631  TIP3      H1             22.4350096015       -7.6434257466       -5.7388646635  SOLV      2620            0.0000000000
      7974      2631  TIP3      H2             22.0962796015       -8.5788357466       -6.8799846635  SOLV      2620            0.0000000000
      7975      2632  TIP3      OH2            28.7252196015      -13.0619057466      -18.7422546635  SOLV      2621            0.0000000000
      7976      2632  TIP3      H1             29.3047696015      -12.9118757466      -17.9953646635  SOLV      2621            0.0000000000
      7977      2632  TIP3      H2             29.1392196015      -12.5911657466      -19.4656146635  SOLV      2621            0.0000000000
      7978      2633  TIP3      OH2            19.6662496015      -12.2276357466       -6.9656146635  SOLV      2622            0.0000000000
      7979      2633  TIP3      H1             19.7365696015      -11.5769557466       -6.2671146635  SOLV      2622            0.0000000000
      7980      2633  TIP3      H2             18.7754696015      -12.1248857466       -7.3005246635  SOLV      2622            0.0000000000
      7981      2634  TIP3      OH2            26.4517096015       -6.3250557466      -15.3069446635  SOLV      2623            0.0000000000
      7982      2634  TIP3      H1             26.9254696015       -6.0294257466      -14.5295246635  SOLV      2623            0.0000000000
      7983      2634  TIP3      H2             25.8886396015       -5.5868957466      -15.5399846635  SOLV      2623            0.0000000000
      7984      2635  TIP3      OH2            20.9858496015       -6.3542457466       -5.4308046635  SOLV      2624            0.0000000000
      7985      2635  TIP3      H1             20.9933796015       -6.4902757466       -6.3782546635  SOLV      2624            0.0000000000
      7986      2635  TIP3      H2             20.0698896015       -6.4714357466       -5.1788046635  SOLV      2624            0.0000000000
      7987      2636  TIP3      OH2            20.4899096015      -12.5241457466      -16.9555946635  SOLV      2625            0.0000000000
      7988      2636  TIP3      H1             20.1980396015      -11.7559757466      -17.4464646635  SOLV      2625            0.0000000000
      7989      2636  TIP3      H2             19.8154296015      -13.1835257466      -17.1184546635  SOLV      2625            0.0000000000
      7990      2637  TIP3      OH2            33.6131996015       -6.9456257466      -20.5528946635  SOLV      2626            0.0000000000
      7991      2637  TIP3      H1             33.6865496015       -6.0066057466      -20.3823646635  SOLV      2626            0.0000000000
      7992      2637  TIP3      H2             34.5187096015       -7.2507657466      -20.6091646635  SOLV      2626            0.0000000000
      7993      2638  TIP3      OH2            16.5829196015      -10.1612257466       -8.1406146635  SOLV      2627            0.0000000000
      7994      2638  TIP3      H1             16.0817596015      -10.1892857466       -8.9556446635  SOLV      2627            0.0000000000
      7995      2638  TIP3      H2             16.5882896015      -11.0669057466       -7.8308846635  SOLV      2627            0.0000000000
      7996      2639  TIP3      OH2            16.3331896015       -7.3808457466      -11.2565946635  SOLV      2628            0.0000000000
      7997      2639  TIP3      H1             17.2792496015       -7.5251457466      -11.2756446635  SOLV      2628            0.0000000000
      7998      2639  TIP3      H2             16.2208196015       -6.5965657466      -10.7194746635  SOLV      2628            0.0000000000
      7999      2640  TIP3      OH2            34.5310396015       -6.7148757466       -5.5742246635  SOLV      2629            0.0000000000
      8000      2640  TIP3      H1             34.4817196015       -7.6700657466       -5.6114646635  SOLV      2629            0.0000000000
      8001      2640  TIP3      H2             33.7042696015       -6.4473457466       -5.1728446635  SOLV      2629            0.0000000000
      8002      2641  TIP3      OH2            25.5094396015       -7.1409557466       -6.6980846635  SOLV      2630            0.0000000000
      8003      2641  TIP3      H1             25.5968996015       -6.3144957466       -6.2231746635  SOLV      2630            0.0000000000
      8004      2641  TIP3      H2             24.6459496015       -7.4705757466       -6.4491546635  SOLV      2630            0.0000000000
      8005      2642  TIP3      OH2            25.9240196015       -3.3685857466      -16.8920246635  SOLV      2631            0.0000000000
      8006      2642  TIP3      H1             25.8486196015       -3.4898657466      -17.8385046635  SOLV      2631            0.0000000000
      8007      2642  TIP3      H2             25.9568896015       -2.4193157466      -16.7735646635  SOLV      2631            0.0000000000
      8008      2643  TIP3      OH2            29.0256196015       -4.2145657466      -19.8897846635  SOLV      2632            0.0000000000
      8009      2643  TIP3      H1             29.4004596015       -4.9589557466      -20.3605246635  SOLV      2632            0.0000000000
      8010      2643  TIP3      H2             29.0299896015       -4.4845057466      -18.9714546635  SOLV      2632            0.0000000000
      8011      2644  TIP3      OH2            28.6944296015       -4.2888557466      -17.1405646635  SOLV      2633            0.0000000000
      8012      2644  TIP3      H1             27.7594096015       -4.1886657466      -16.9618646635  SOLV      2633            0.0000000000
      8013      2644  TIP3      H2             28.9746196015       -4.9982557466      -16.5622446635  SOLV      2633            0.0000000000
      8014      2645  TIP3      OH2            31.6830196015      -15.2216257466       -5.0940046635  SOLV      2634            0.0000000000
      8015      2645  TIP3      H1             31.2756996015      -14.7410657466       -5.8146746635  SOLV      2634            0.0000000000
      8016      2645  TIP3      H2             31.7235896015      -16.1270257466       -5.4019246635  SOLV      2634            0.0000000000
      8017      2646  TIP3      OH2            18.8319696015       -8.8376857466       -7.0973346635  SOLV      2635            0.0000000000
      8018      2646  TIP3      H1             19.0480996015       -9.1991257466       -6.2377546635  SOLV      2635            0.0000000000
      8019      2646  TIP3      H2             17.9764396015       -9.2123057466       -7.3069846635  SOLV      2635            0.0000000000
      8020      2647  TIP3      OH2            21.4507696015      -20.3676357466      -11.1019146635  SOLV      2636            0.0000000000
      8021      2647  TIP3      H1             20.5891396015      -20.4548157466      -11.5096246635  SOLV      2636            0.0000000000
      8022      2647  TIP3      H2             21.4283396015      -19.5116257466      -10.6741546635  SOLV      2636            0.0000000000
      8023      2648  TIP3      OH2            26.1135496015      -20.6455957466       -7.7272146635  SOLV      2637            0.0000000000
      8024      2648  TIP3      H1             26.5338596015      -21.0608857466       -6.9741546635  SOLV      2637            0.0000000000
      8025      2648  TIP3      H2             25.1805096015      -20.8242657466       -7.6100146635  SOLV      2637            0.0000000000
      8026      2649  TIP3      OH2            29.4400396015      -16.8900757466       -6.8737646635  SOLV      2638            0.0000000000
      8027      2649  TIP3      H1             28.9259896015      -17.0158557466       -6.0761646635  SOLV      2638            0.0000000000
      8028      2649  TIP3      H2             29.2845096015      -15.9777657466       -7.1181446635  SOLV      2638            0.0000000000
      8029      2650  TIP3      OH2            30.2025296015      -12.0290757466      -21.1124646635  SOLV      2639            0.0000000000
      8030      2650  TIP3      H1             30.2446096015      -12.2516857466      -22.0424646635  SOLV      2639            0.0000000000
      8031      2650  TIP3      H2             31.0517396015      -11.6303657466      -20.9224746635  SOLV      2639            0.0000000000
      8032      2651  TIP3      OH2            25.7752796015      -18.1532557466      -20.4421346635  SOLV      2640            0.0000000000
      8033      2651  TIP3      H1             25.5217596015      -18.1340957466      -19.5193246635  SOLV      2640            0.0000000000
      8034      2651  TIP3      H2             25.5184896015      -19.0247157466      -20.7435146635  SOLV      2640            0.0000000000
      8035      2652  TIP3      OH2            21.5417796015      -15.4021857466      -10.0068946635  SOLV      2641            0.0000000000
      8036      2652  TIP3      H1             20.8999896015      -15.4424557466       -9.2978846635  SOLV      2641            0.0000000000
      8037      2652  TIP3      H2             21.5789796015      -14.4757157466      -10.2445946635  SOLV      2641            0.0000000000
      8038      2653  TIP3      OH2            21.5386896015      -15.1811757466      -15.0948946635  SOLV      2642            0.0000000000
      8039      2653  TIP3      H1             20.6459796015      -15.5215657466      -15.1535146635  SOLV      2642            0.0000000000
      8040      2653  TIP3      H2             21.9893496015      -15.5580857466      -15.8505746635  SOLV      2642            0.0000000000
      8041      2654  TIP3      OH2            27.0742396015      -14.7651457466      -16.2778146635  SOLV      2643            0.0000000000
      8042      2654  TIP3      H1             26.6652696015      -13.9502857466      -16.5693346635  SOLV      2643            0.0000000000
      8043      2654  TIP3      H2             27.7948596015      -14.9051357466      -16.8921046635  SOLV      2643            0.0000000000
      8044      2655  TIP3      OH2            26.1763996015      -14.5895057466       -4.7897446635  SOLV      2644            0.0000000000
      8045      2655  TIP3      H1             25.6137796015      -15.2943457466       -4.4689646635  SOLV      2644            0.0000000000
      8046      2655  TIP3      H2             27.0027396015      -14.7103157466       -4.3219846635  SOLV      2644            0.0000000000
      8047      2656  TIP3      OH2            28.0790096015      -15.3191057466      -13.4638446635  SOLV      2645            0.0000000000
      8048      2656  TIP3      H1             27.8834596015      -14.7134257466      -14.1787846635  SOLV      2645            0.0000000000
      8049      2656  TIP3      H2             28.2602696015      -16.1525857466      -13.8982146635  SOLV      2645            0.0000000000
      8050      2657  TIP3      OH2            19.2918296015      -15.0818357466       -8.1396946635  SOLV      2646            0.0000000000
      8051      2657  TIP3      H1             19.2537696015      -14.6816757466       -7.2709846635  SOLV      2646            0.0000000000
      8052      2657  TIP3      H2             18.8009396015      -15.8985957466       -8.0494046635  SOLV      2646            0.0000000000
      8053      2658  TIP3      OH2            22.6575696015      -17.7076057466      -21.3410946635  SOLV      2647            0.0000000000
      8054      2658  TIP3      H1             22.2266396015      -18.1525957466      -20.6113546635  SOLV      2647            0.0000000000
      8055      2658  TIP3      H2             21.9394396015      -17.3359757466      -21.8533446635  SOLV      2647            0.0000000000
      8056      2659  TIP3      OH2            15.8999096015      -17.9656557466      -14.2892246635  SOLV      2648            0.0000000000
      8057      2659  TIP3      H1             16.5306796015      -17.9944457466      -13.5698346635  SOLV      2648            0.0000000000
      8058      2659  TIP3      H2             16.3493396015      -18.3907857466      -15.0196346635  SOLV      2648            0.0000000000
      8059      2660  TIP3      OH2            17.1741196015      -17.2194557466      -18.8651846635  SOLV      2649            0.0000000000
      8060      2660  TIP3      H1             17.6482896015      -16.6284657466      -19.4500946635  SOLV      2649            0.0000000000
      8061      2660  TIP3      H2             16.4567596015      -16.6891657466      -18.5181746635  SOLV      2649            0.0000000000
      8062      2661  TIP3      OH2            27.3429296015      -13.6809757466       -8.7926046635  SOLV      2650            0.0000000000
      8063      2661  TIP3      H1             27.6664096015      -14.3120057466       -9.4355546635  SOLV      2650            0.0000000000
      8064      2661  TIP3      H2             26.9028596015      -14.2157557466       -8.1318646635  SOLV      2650            0.0000000000
      8065      2662  TIP3      OH2            24.1202196015      -17.7534257466      -14.0084846635  SOLV      2651            0.0000000000
      8066      2662  TIP3      H1             23.2093296015      -17.6967457466      -13.7198846635  SOLV      2651            0.0000000000
      8067      2662  TIP3      H2             24.6255096015      -17.8138757466      -13.1977646635  SOLV      2651            0.0000000000
      8068      2663  TIP3      OH2            18.9485596015      -16.1247957466      -15.1817246635  SOLV      2652            0.0000000000
      8069      2663  TIP3      H1             18.0593596015      -16.0252457466      -15.5217646635  SOLV      2652            0.0000000000
      8070      2663  TIP3      H2             19.2450496015      -16.9664957466      -15.5279346635  SOLV      2652            0.0000000000
      8071      2664  TIP3      OH2            22.6017396015      -16.1245357466      -17.5252646635  SOLV      2653            0.0000000000
      8072      2664  TIP3      H1             23.5332896015      -15.9955357466      -17.3469546635  SOLV      2653            0.0000000000
      8073      2664  TIP3      H2             22.3867696015      -15.4551057466      -18.1747946635  SOLV      2653            0.0000000000
      8074      2665  TIP3      OH2            28.5254096015      -18.5187957466      -10.7443046635  SOLV      2654            0.0000000000
      8075      2665  TIP3      H1             27.8485696015      -18.3874857466      -10.0803346635  SOLV      2654            0.0000000000
      8076      2665  TIP3      H2             28.0398996015      -18.6738457466      -11.5545346635  SOLV      2654            0.0000000000
      8077      2666  TIP3      OH2            21.2757596015      -14.9303157466      -19.9586546635  SOLV      2655            0.0000000000
      8078      2666  TIP3      H1             20.7332696015      -15.3099357466      -20.6498946635  SOLV      2655            0.0000000000
      8079      2666  TIP3      H2             22.1092496015      -14.7358457466      -20.3872446635  SOLV      2655            0.0000000000
      8080      2667  TIP3      OH2            31.8129196015       -2.8472557466       -4.4675446635  SOLV      2656            0.0000000000
      8081      2667  TIP3      H1             32.0127896015       -2.4230657466       -5.3020146635  SOLV      2656            0.0000000000
      8082      2667  TIP3      H2             32.4682896015       -2.5034357466       -3.8605046635  SOLV      2656            0.0000000000
      8083      2668  TIP3      OH2            19.4108996015      -10.3731257466       -4.8594946635  SOLV      2657            0.0000000000
      8084      2668  TIP3      H1             20.1431396015      -10.1185357466       -4.2980446635  SOLV      2657            0.0000000000
      8085      2668  TIP3      H2             18.6307696015      -10.1685857466       -4.3439546635  SOLV      2657            0.0000000000
      8086      2669  TIP3      OH2            25.4401896015      -14.9661257466      -12.1215246635  SOLV      2658            0.0000000000
      8087      2669  TIP3      H1             26.0045296015      -15.5124657466      -12.6685646635  SOLV      2658            0.0000000000
      8088      2669  TIP3      H2             25.2925296015      -15.4879357466      -11.3327646635  SOLV      2658            0.0000000000
      8089      2670  TIP3      OH2            20.4421596015      -18.8295157466      -15.7030446635  SOLV      2659            0.0000000000
      8090      2670  TIP3      H1             20.1251096015      -19.7319857466      -15.7385046635  SOLV      2659            0.0000000000
      8091      2670  TIP3      H2             21.2235696015      -18.8277757466      -16.2558846635  SOLV      2659            0.0000000000
      8092      2671  TIP3      OH2            24.0667796015      -16.5775157466       -9.7074846635  SOLV      2660            0.0000000000
      8093      2671  TIP3      H1             23.2313096015      -16.1235657466       -9.5972446635  SOLV      2660            0.0000000000
      8094      2671  TIP3      H2             24.5908396015      -16.3016657466       -8.9554946635  SOLV      2660            0.0000000000
      8095      2672  TIP3      OH2            24.6110396015      -10.3647457466      -18.0228446635  SOLV      2661            0.0000000000
      8096      2672  TIP3      H1             23.8661396015      -10.8722157466      -18.3450546635  SOLV      2661            0.0000000000
      8097      2672  TIP3      H2             24.4767596015      -10.3159457466      -17.0763646635  SOLV      2661            0.0000000000
      8098      2673  TIP3      OH2            31.7609296015      -11.2319257466       -9.2360846635  SOLV      2662            0.0000000000
      8099      2673  TIP3      H1             32.4028096015      -10.7752957466       -9.7798646635  SOLV      2662            0.0000000000
      8100      2673  TIP3      H2             30.9306196015      -11.1186857466       -9.6986746635  SOLV      2662            0.0000000000
      8101      2674  TIP3      OH2            28.5087196015      -17.5507557466      -19.8235846635  SOLV      2663            0.0000000000
      8102      2674  TIP3      H1             27.5701396015      -17.4391957466      -19.9747046635  SOLV      2663            0.0000000000
      8103      2674  TIP3      H2             28.8059296015      -16.6940657466      -19.5170146635  SOLV      2663            0.0000000000
      8104      2675  TIP3      OH2            26.1302496015      -10.1804157466       -6.7859346635  SOLV      2664            0.0000000000
      8105      2675  TIP3      H1             25.7848596015      -10.5621757466       -5.9789746635  SOLV      2664            0.0000000000
      8106      2675  TIP3      H2             25.9302596015       -9.2470557466       -6.7146446635  SOLV      2664            0.0000000000
      8107      2676  TIP3      OH2            29.2270696015      -15.6834857466      -18.1628446635  SOLV      2665            0.0000000000
      8108      2676  TIP3      H1             30.1189696015      -15.8209857466      -17.8437246635  SOLV      2665            0.0000000000
      8109      2676  TIP3      H2             29.2834296015      -14.8928757466      -18.6994946635  SOLV      2665            0.0000000000
      8110      2677  TIP3      OH2            19.7358696015      -11.0697457466      -12.2530546635  SOLV      2666            0.0000000000
      8111      2677  TIP3      H1             20.4805896015      -11.0721757466      -12.8544046635  SOLV      2666            0.0000000000
      8112      2677  TIP3      H2             19.8135296015      -11.8933657466      -11.7715446635  SOLV      2666            0.0000000000
      8113      2678  TIP3      OH2            26.7364496015       -8.9063157466      -18.9973846635  SOLV      2667            0.0000000000
      8114      2678  TIP3      H1             26.4412896015       -8.0795257466      -18.6159046635  SOLV      2667            0.0000000000
      8115      2678  TIP3      H2             26.0334496015       -9.5256257466      -18.8012446635  SOLV      2667            0.0000000000
      8116      2679  TIP3      OH2            16.7438396015      -12.6090557466       -6.9382046635  SOLV      2668            0.0000000000
      8117      2679  TIP3      H1             16.9666996015      -13.0270957466       -6.1064546635  SOLV      2668            0.0000000000
      8118      2679  TIP3      H2             16.1418496015      -13.2215557466       -7.3609246635  SOLV      2668            0.0000000000
      8119      2680  TIP3      OH2            23.7603296015      -13.0920657466       -4.7252346635  SOLV      2669            0.0000000000
      8120      2680  TIP3      H1             23.4644096015      -13.2577657466       -5.6203246635  SOLV      2669            0.0000000000
      8121      2680  TIP3      H2             24.6918496015      -13.3120357466       -4.7358446635  SOLV      2669            0.0000000000
      8122      2681  TIP3      OH2            28.3806096015       -7.7188657466       -6.8354346635  SOLV      2670            0.0000000000
      8123      2681  TIP3      H1             27.4800396015       -7.5356057466       -7.1030446635  SOLV      2670            0.0000000000
      8124      2681  TIP3      H2             28.4147196015       -7.4599357466       -5.9145546635  SOLV      2670            0.0000000000
      8125      2682  TIP3      OH2            34.0751396015       -9.6739057466       -5.6310246635  SOLV      2671            0.0000000000
      8126      2682  TIP3      H1             33.2239896015       -9.4355257466       -5.9983846635  SOLV      2671            0.0000000000
      8127      2682  TIP3      H2             34.6654796015       -9.6905857466       -6.3843146635  SOLV      2671            0.0000000000
      8128      2683  TIP3      OH2            32.4071096015       -6.6880357466      -18.0029646635  SOLV      2672            0.0000000000
      8129      2683  TIP3      H1             32.0342196015       -7.5136557466      -17.6939046635  SOLV      2672            0.0000000000
      8130      2683  TIP3      H2             32.6844596015       -6.8710957466      -18.9006246635  SOLV      2672            0.0000000000
      8131      2684  TIP3      OH2            29.5674996015      -11.8800857466      -10.9817746635  SOLV      2673            0.0000000000
      8132      2684  TIP3      H1             28.6391896015      -12.1118957466      -11.0088446635  SOLV      2673            0.0000000000
      8133      2684  TIP3      H2             30.0186096015      -12.6571057466      -11.3118946635  SOLV      2673            0.0000000000
      8134      2685  TIP3      OH2            22.1108096015       -7.5519257466      -14.8489046635  SOLV      2674            0.0000000000
      8135      2685  TIP3      H1             22.6380296015       -6.7784857466      -15.0490246635  SOLV      2674            0.0000000000
      8136      2685  TIP3      H2             21.2306596015       -7.3270057466      -15.1505046635  SOLV      2674            0.0000000000
      8137      2686  TIP3      OH2            17.8655796015      -12.6895157466      -20.2616646635  SOLV      2675            0.0000000000
      8138      2686  TIP3      H1             18.4815696015      -12.0627957466      -19.8821846635  SOLV      2675            0.0000000000
      8139      2686  TIP3      H2             17.0038396015      -12.3735357466      -19.9900146635  SOLV      2675            0.0000000000
      8140      2687  TIP3      OH2            23.5380396015       -9.8889357466      -15.2724746635  SOLV      2676            0.0000000000
      8141      2687  TIP3      H1             23.2970396015       -8.9634957466      -15.2309446635  SOLV      2676            0.0000000000
      8142      2687  TIP3      H2             22.7973996015      -10.3478057466      -14.8760846635  SOLV      2676            0.0000000000
      8143      2688  TIP3      OH2            24.0526996015       -5.7395757466       -8.9573646635  SOLV      2677            0.0000000000
      8144      2688  TIP3      H1             24.4151696015       -4.8850157466       -9.1909246635  SOLV      2677            0.0000000000
      8145      2688  TIP3      H2             24.5842196015       -6.0314157466       -8.2167346635  SOLV      2677            0.0000000000
      8146      2689  TIP3      OH2            22.2211196015       -4.8671757466      -15.7272546635  SOLV      2678            0.0000000000
      8147      2689  TIP3      H1             21.2711696015       -4.7614357466      -15.6759246635  SOLV      2678            0.0000000000
      8148      2689  TIP3      H2             22.5729296015       -4.0464357466      -15.3825046635  SOLV      2678            0.0000000000
      8149      2690  TIP3      OH2            27.5967796015       -9.6405057466       -9.2568046635  SOLV      2679            0.0000000000
      8150      2690  TIP3      H1             27.1709096015       -9.8683357466       -8.4304046635  SOLV      2679            0.0000000000
      8151      2690  TIP3      H2             28.1773596015      -10.3793257466       -9.4392746635  SOLV      2679            0.0000000000
      8152      2691  TIP3      OH2            29.7996696015       -8.7114557466      -20.1829046635  SOLV      2680            0.0000000000
      8153      2691  TIP3      H1             30.1529796015       -9.0914757466      -19.3785546635  SOLV      2680            0.0000000000
      8154      2691  TIP3      H2             28.8510196015       -8.8049757466      -20.0959746635  SOLV      2680            0.0000000000
      8155      2692  TIP3      OH2            30.2551996015       -5.0885557466       -6.7873246635  SOLV      2681            0.0000000000
      8156      2692  TIP3      H1             29.6535196015       -5.6442657466       -7.2826946635  SOLV      2681            0.0000000000
      8157      2692  TIP3      H2             30.5365696015       -4.4215757466       -7.4135846635  SOLV      2681            0.0000000000
      8158      2693  TIP3      OH2            34.3031096015       -4.2322057466      -19.9818846635  SOLV      2682            0.0000000000
      8159      2693  TIP3      H1             35.0468996015       -3.6461557466      -20.1217246635  SOLV      2682            0.0000000000
      8160      2693  TIP3      H2             33.6089196015       -3.6636257466      -19.6486446635  SOLV      2682            0.0000000000
      8161      2694  TIP3      OH2            18.3777896015      -17.8557857466       -7.3800646635  SOLV      2683            0.0000000000
      8162      2694  TIP3      H1             17.4850196015      -17.5172457466       -7.4476646635  SOLV      2683            0.0000000000
      8163      2694  TIP3      H2             18.2790696015      -18.7111757466       -6.9619846635  SOLV      2683            0.0000000000
      8164      2695  TIP3      OH2            30.6655996015      -10.0392557466      -17.9561146635  SOLV      2684            0.0000000000
      8165      2695  TIP3      H1             30.3883596015      -10.7673257466      -17.4000046635  SOLV      2684            0.0000000000
      8166      2695  TIP3      H2             31.5928996015       -9.9200557466      -17.7508546635  SOLV      2684            0.0000000000
      8167      2696  TIP3      OH2            18.0289896015       -6.0513457466       -8.9451246635  SOLV      2685            0.0000000000
      8168      2696  TIP3      H1             18.2460196015       -6.9831057466       -8.9761546635  SOLV      2685            0.0000000000
      8169      2696  TIP3      H2             18.2753396015       -5.7768457466       -8.0618446635  SOLV      2685            0.0000000000
      8170      2697  TIP3      OH2            23.8904496015       -7.5998457466      -21.7359046635  SOLV      2686            0.0000000000
      8171      2697  TIP3      H1             24.1294296015       -8.3480357466      -22.2830146635  SOLV      2686            0.0000000000
      8172      2697  TIP3      H2             23.6215796015       -7.9876757466      -20.9031246635  SOLV      2686            0.0000000000
      8173      2698  TIP3      OH2            22.8275096015       -8.0294657466      -19.2796446635  SOLV      2687            0.0000000000
      8174      2698  TIP3      H1             22.9743096015       -8.5494857466      -18.4895546635  SOLV      2687            0.0000000000
      8175      2698  TIP3      H2             22.8246796015       -7.1227057466      -18.9730546635  SOLV      2687            0.0000000000
      8176      2699  TIP3      OH2            19.2806196015      -10.7771357466      -18.7691046635  SOLV      2688            0.0000000000
      8177      2699  TIP3      H1             18.5945496015      -10.4248857466      -18.2021346635  SOLV      2688            0.0000000000
      8178      2699  TIP3      H2             19.8034096015      -10.0141757466      -19.0156746635  SOLV      2688            0.0000000000
      8179      2700  TIP3      OH2            27.1121296015      -18.1147557466       -8.4902046635  SOLV      2689            0.0000000000
      8180      2700  TIP3      H1             27.8109196015      -18.0408857466       -7.8402346635  SOLV      2689            0.0000000000
      8181      2700  TIP3      H2             26.7312696015      -18.9792557466       -8.3359146635  SOLV      2689            0.0000000000
      8182      2701  TIP3      OH2            27.8966196015      -18.4625857466      -17.3929746635  SOLV      2690            0.0000000000
      8183      2701  TIP3      H1             28.1164496015      -17.9910457466      -18.1964346635  SOLV      2690            0.0000000000
      8184      2701  TIP3      H2             28.4550196015      -18.0683257466      -16.7229146635  SOLV      2690            0.0000000000
      8185      2702  TIP3      OH2            25.5652296015       -6.3321057466      -18.5302246635  SOLV      2691            0.0000000000
      8186      2702  TIP3      H1             24.7488396015       -5.8351357466      -18.4777946635  SOLV      2691            0.0000000000
      8187      2702  TIP3      H2             26.0948596015       -5.8567557466      -19.1703446635  SOLV      2691            0.0000000000
      8188      2703  TIP3      OH2            25.0966096015      -16.7347057466      -16.5581346635  SOLV      2692            0.0000000000
      8189      2703  TIP3      H1             25.9088696015      -16.2303857466      -16.5119646635  SOLV      2692            0.0000000000
      8190      2703  TIP3      H2             24.8519096015      -16.8797357466      -15.6441746635  SOLV      2692            0.0000000000
      8191      2704  TIP3      OH2            25.6322496015      -15.7484357466       -7.3734746635  SOLV      2693            0.0000000000
      8192      2704  TIP3      H1             25.7512796015      -15.1748957466       -6.6164346635  SOLV      2693            0.0000000000
      8193      2704  TIP3      H2             26.2877096015      -16.4364957466       -7.2586946635  SOLV      2693            0.0000000000
      8194      2705  TIP3      OH2            25.9802796015      -19.6534057466      -15.6200246635  SOLV      2694            0.0000000000
      8195      2705  TIP3      H1             25.6336296015      -19.0363457466      -14.9755946635  SOLV      2694            0.0000000000
      8196      2705  TIP3      H2             26.6389696015      -19.1528357466      -16.1014746635  SOLV      2694            0.0000000000
      8197      2706  TIP3      OH2            22.9035396015       -5.2883857466      -18.5485346635  SOLV      2695            0.0000000000
      8198      2706  TIP3      H1             23.0644096015       -4.4886357466      -19.0492746635  SOLV      2695            0.0000000000
      8199      2706  TIP3      H2             22.7063196015       -4.9817857466      -17.6634746635  SOLV      2695            0.0000000000
      8200      2707  TIP3      OH2            21.6379796015      -18.5904657466      -18.9327746635  SOLV      2696            0.0000000000
      8201      2707  TIP3      H1             21.5544596015      -17.7021557466      -18.5861346635  SOLV      2696            0.0000000000
      8202      2707  TIP3      H2             22.5280096015      -18.8557957466      -18.7010946635  SOLV      2696            0.0000000000
      8203      2708  TIP3      OH2            31.8368296015      -17.8414057466       -6.5385046635  SOLV      2697            0.0000000000
      8204      2708  TIP3      H1             30.9204096015      -17.5792357466       -6.6261346635  SOLV      2697            0.0000000000
      8205      2708  TIP3      H2             32.1723296015      -17.8445057466       -7.4349746635  SOLV      2697            0.0000000000
      8206      2709  TIP3      OH2            30.4389296015      -14.0913057466      -12.4427746635  SOLV      2698            0.0000000000
      8207      2709  TIP3      H1             29.6413696015      -14.5062857466      -12.7712746635  SOLV      2698            0.0000000000
      8208      2709  TIP3      H2             30.8840396015      -14.7819357466      -11.9517246635  SOLV      2698            0.0000000000
      8209      2710  TIP3      OH2            19.8965096015       -8.1632457466      -19.8723246635  SOLV      2699            0.0000000000
      8210      2710  TIP3      H1             20.4886596015       -7.4637657466      -19.5960846635  SOLV      2699            0.0000000000
      8211      2710  TIP3      H2             20.3558096015       -8.5962957466      -20.5918646635  SOLV      2699            0.0000000000
      8212      2711  TIP3      OH2            18.2124296015      -15.4989457466      -20.7563846635  SOLV      2700            0.0000000000
      8213      2711  TIP3      H1             18.1676896015      -14.5596357466      -20.5776846635  SOLV      2700            0.0000000000
      8214      2711  TIP3      H2             17.3247496015      -15.7344557466      -21.0261746635  SOLV      2700            0.0000000000
      8215      2712  TIP3      OH2            31.5253896015       -4.8350557466      -10.8204246635  SOLV      2701            0.0000000000
      8216      2712  TIP3      H1             31.3698196015       -4.1566157466      -11.4774946635  SOLV      2701            0.0000000000
      8217      2712  TIP3      H2             32.4580296015       -4.7631257466      -10.6173646635  SOLV      2701            0.0000000000
      8218      2713  TIP3      OH2            19.0206296015      -20.7172857466      -12.0832846635  SOLV      2702            0.0000000000
      8219      2713  TIP3      H1             18.7916096015      -20.6580357466      -13.0107846635  SOLV      2702            0.0000000000
      8220      2713  TIP3      H2             18.5779696015      -21.5087357466      -11.7768746635  SOLV      2702            0.0000000000
      8221      2714  TIP3      OH2            17.2393296015       -4.1642057466       -4.5929046635  SOLV      2703            0.0000000000
      8222      2714  TIP3      H1             17.7795496015       -4.3808057466       -3.8329846635  SOLV      2703            0.0000000000
      8223      2714  TIP3      H2             16.7581296015       -4.9696057466       -4.7826546635  SOLV      2703            0.0000000000
      8224      2715  TIP3      OH2            21.8366696015       -5.2447657466       -2.9724846635  SOLV      2704            0.0000000000
      8225      2715  TIP3      H1             22.6043896015       -5.7036857466       -2.6315646635  SOLV      2704            0.0000000000
      8226      2715  TIP3      H2             21.8152896015       -5.4707857466       -3.9023646635  SOLV      2704            0.0000000000
      8227      2716  TIP3      OH2            25.9286296015       -5.7367057466      -21.5973046635  SOLV      2705            0.0000000000
      8228      2716  TIP3      H1             25.2847296015       -6.3678457466      -21.2759346635  SOLV      2705            0.0000000000
      8229      2716  TIP3      H2             26.6904596015       -6.2679057466      -21.8289546635  SOLV      2705            0.0000000000
      8230      2717  TIP3      OH2            28.4135396015       -6.8646557466       -4.2433346635  SOLV      2706            0.0000000000
      8231      2717  TIP3      H1             28.0624896015       -7.7213557466       -4.0002946635  SOLV      2706            0.0000000000
      8232      2717  TIP3      H2             29.1398596015       -6.7219857466       -3.6364346635  SOLV      2706            0.0000000000
      8233      2718  TIP3      OH2            30.5329196015       -5.9197157466      -21.3635046635  SOLV      2707            0.0000000000
      8234      2718  TIP3      H1             30.8159596015       -6.7141957466      -20.9108146635  SOLV      2707            0.0000000000
      8235      2718  TIP3      H2             31.2727096015       -5.6866157466      -21.9243946635  SOLV      2707            0.0000000000
      8236      2719  TIP3      OH2            17.1462796015      -10.3537957466       -3.6384746635  SOLV      2708            0.0000000000
      8237      2719  TIP3      H1             17.2903296015      -11.2557257466       -3.9248046635  SOLV      2708            0.0000000000
      8238      2719  TIP3      H2             16.3740196015      -10.0675857466       -4.1262446635  SOLV      2708            0.0000000000
      8239      2720  TIP3      OH2            21.4876496015      -10.0102257466      -21.5060146635  SOLV      2709            0.0000000000
      8240      2720  TIP3      H1             21.5520596015      -10.8042657466      -20.9753746635  SOLV      2709            0.0000000000
      8241      2720  TIP3      H2             22.1405696015      -10.1289457466      -22.1958146635  SOLV      2709            0.0000000000
      8242      2721  TIP3      OH2            23.8018896015      -10.3839857466       -4.2058346635  SOLV      2710            0.0000000000
      8243      2721  TIP3      H1             23.4732696015      -10.1131757466       -5.0630946635  SOLV      2710            0.0000000000
      8244      2721  TIP3      H2             23.9537096015      -11.3250057466       -4.2933346635  SOLV      2710            0.0000000000
      8245      2722  TIP3      OH2            26.8399896015       -8.9630557466      -21.7702146635  SOLV      2711            0.0000000000
      8246      2722  TIP3      H1             26.5713996015       -8.7828457466      -20.8693246635  SOLV      2711            0.0000000000
      8247      2722  TIP3      H2             26.6335496015       -9.8884357466      -21.9016346635  SOLV      2711            0.0000000000
      8248      2723  TIP3      OH2            29.5364096015      -10.4682557466       -6.8226046635  SOLV      2712            0.0000000000
      8249      2723  TIP3      H1             30.2818896015       -9.8798857466       -6.9422046635  SOLV      2712            0.0000000000
      8250      2723  TIP3      H2             28.7790896015       -9.8862857466       -6.7592946635  SOLV      2712            0.0000000000
      8251      2724  TIP3      OH2            17.9789296015      -13.1534657466       -4.2185446635  SOLV      2713            0.0000000000
      8252      2724  TIP3      H1             18.3870496015      -14.0108057466       -4.3394846635  SOLV      2713            0.0000000000
      8253      2724  TIP3      H2             17.7186896015      -13.1393357466       -3.2975146635  SOLV      2713            0.0000000000
      8254      2725  TIP3      OH2            22.6370296015      -12.0376057466      -19.2002146635  SOLV      2714            0.0000000000
      8255      2725  TIP3      H1             22.1772296015      -12.5217757466      -18.5143646635  SOLV      2714            0.0000000000
      8256      2725  TIP3      H2             22.8918996015      -12.7060657466      -19.8361646635  SOLV      2714            0.0000000000
      8257      2726  TIP3      OH2            21.9259596015      -14.1448957466       -6.8442546635  SOLV      2715            0.0000000000
      8258      2726  TIP3      H1             21.3075696015      -13.4702357466       -6.5637846635  SOLV      2715            0.0000000000
      8259      2726  TIP3      H2             22.2700796015      -13.8235057466       -7.6776346635  SOLV      2715            0.0000000000
      8260      2727  TIP3      OH2            23.7080696015      -13.7944257466      -20.9378946635  SOLV      2716            0.0000000000
      8261      2727  TIP3      H1             23.5275696015      -13.9493057466      -21.8650646635  SOLV      2716            0.0000000000
      8262      2727  TIP3      H2             24.6581196015      -13.6865557466      -20.8931046635  SOLV      2716            0.0000000000
      8263      2728  TIP3      OH2            26.9457796015      -11.6733657466       -3.5667746635  SOLV      2717            0.0000000000
      8264      2728  TIP3      H1             27.8988996015      -11.5894557466       -3.5941746635  SOLV      2717            0.0000000000
      8265      2728  TIP3      H2             26.7852396015      -12.3851857466       -2.9472846635  SOLV      2717            0.0000000000
      8266      2729  TIP3      OH2            33.0978996015      -11.4400057466      -21.4920846635  SOLV      2718            0.0000000000
      8267      2729  TIP3      H1             32.8243796015      -11.8644557466      -22.3052546635  SOLV      2718            0.0000000000
      8268      2729  TIP3      H2             33.1373096015      -10.5085557466      -21.7090446635  SOLV      2718            0.0000000000
      8269      2730  TIP3      OH2            22.2653296015      -16.7898157466       -5.7619446635  SOLV      2719            0.0000000000
      8270      2730  TIP3      H1             22.4154196015      -17.5186857466       -6.3639746635  SOLV      2719            0.0000000000
      8271      2730  TIP3      H2             22.2675696015      -16.0126457466       -6.3207246635  SOLV      2719            0.0000000000
      8272      2731  TIP3      OH2            22.6778996015      -18.4202357466       -8.2692046635  SOLV      2720            0.0000000000
      8273      2731  TIP3      H1             23.2136496015      -17.9685657466       -8.9212746635  SOLV      2720            0.0000000000
      8274      2731  TIP3      H2             21.8258596015      -18.5282557466       -8.6917946635  SOLV      2720            0.0000000000
      8275      2732  TIP3      OH2            24.2597396015      -12.9806157466       -8.0296846635  SOLV      2721            0.0000000000
      8276      2732  TIP3      H1             25.0102196015      -13.1368657466       -8.6029046635  SOLV      2721            0.0000000000
      8277      2732  TIP3      H2             23.9205696015      -12.1289557466       -8.3051346635  SOLV      2721            0.0000000000
      8278      2733  TIP3      OH2            28.6753596015      -15.1654357466       -3.0011546635  SOLV      2722            0.0000000000
      8279      2733  TIP3      H1             28.8674896015      -16.0964957466       -3.1127046635  SOLV      2722            0.0000000000
      8280      2733  TIP3      H2             29.5329896015      -14.7404857466       -3.0116146635  SOLV      2722            0.0000000000
      8281      2734  TIP3      OH2            29.9920796015      -12.3769157466       -4.9238846635  SOLV      2723            0.0000000000
      8282      2734  TIP3      H1             29.7105796015      -11.6674557466       -5.5015046635  SOLV      2723            0.0000000000
      8283      2734  TIP3      H2             30.9345096015      -12.4496157466       -5.0747646635  SOLV      2723            0.0000000000
      8284      2735  TIP3      OH2            20.7439596015      -15.5914657466       -3.8503846635  SOLV      2724            0.0000000000
      8285      2735  TIP3      H1             19.9768596015      -16.1239857466       -4.0606246635  SOLV      2724            0.0000000000
      8286      2735  TIP3      H2             21.4228596015      -15.9014257466       -4.4497546635  SOLV      2724            0.0000000000
      8287      2736  TIP3      OH2            23.4834496015      -20.9636657466       -7.8378446635  SOLV      2725            0.0000000000
      8288      2736  TIP3      H1             23.3854096015      -20.0173457466       -7.9432246635  SOLV      2725            0.0000000000
      8289      2736  TIP3      H2             22.7410696015      -21.3362857466       -8.3134946635  SOLV      2725            0.0000000000
      8290      2737  TIP3      OH2            24.7474996015      -16.6421257466       -4.2740046635  SOLV      2726            0.0000000000
      8291      2737  TIP3      H1             24.5120396015      -16.8614557466       -3.3725146635  SOLV      2726            0.0000000000
      8292      2737  TIP3      H2             23.9641896015      -16.8490057466       -4.7837546635  SOLV      2726            0.0000000000
      8293      2738  TIP3      OH2            27.4631596015      -17.5147757466       -5.1986546635  SOLV      2727            0.0000000000
      8294      2738  TIP3      H1             26.5156996015      -17.4828057466       -5.0663246635  SOLV      2727            0.0000000000
      8295      2738  TIP3      H2             27.7758296015      -18.1400657466       -4.5448346635  SOLV      2727            0.0000000000
      8296      2739  TIP3      OH2            29.0973096015      -18.8806657466       -3.1934646635  SOLV      2728            0.0000000000
      8297      2739  TIP3      H1             29.0004896015      -19.8329357466       -3.1992746635  SOLV      2728            0.0000000000
      8298      2739  TIP3      H2             28.7756196015      -18.6119857466       -2.3329146635  SOLV      2728            0.0000000000
      8299      2740  TIP3      OH2            18.9242396015      -17.6710857466       -4.1459146635  SOLV      2729            0.0000000000
      8300      2740  TIP3      H1             19.1359796015      -18.3774757466       -4.7561646635  SOLV      2729            0.0000000000
      8301      2740  TIP3      H2             18.8129896015      -18.1084857466       -3.3017946635  SOLV      2729            0.0000000000
      8302      2741  TIP3      OH2            23.7052596015      -21.6699257466       -5.1665646635  SOLV      2730            0.0000000000
      8303      2741  TIP3      H1             24.4170996015      -22.3097057466       -5.1806546635  SOLV      2730            0.0000000000
      8304      2741  TIP3      H2             23.6042996015      -21.4030957466       -6.0802546635  SOLV      2730            0.0000000000
      8305      2742  TIP3      OH2            24.0590096015      -19.9870857466       -3.1129346635  SOLV      2731            0.0000000000
      8306      2742  TIP3      H1             23.9272296015      -20.4627057466       -3.9330846635  SOLV      2731            0.0000000000
      8307      2742  TIP3      H2             23.4597496015      -19.2427257466       -3.1682246635  SOLV      2731            0.0000000000
      8308      2743  TIP3      OH2            23.6052396015       -3.1040557466      -19.9365346635  SOLV      2732            0.0000000000
      8309      2743  TIP3      H1             24.5383096015       -2.9461857466      -19.7926946635  SOLV      2732            0.0000000000
      8310      2743  TIP3      H2             23.3411196015       -2.4287557466      -20.5613846635  SOLV      2732            0.0000000000
      8311      2744  TIP3      OH2            17.1737296015       -8.4676757466      -20.4537246635  SOLV      2733            0.0000000000
      8312      2744  TIP3      H1             18.0876496015       -8.3887857466      -20.1803346635  SOLV      2733            0.0000000000
      8313      2744  TIP3      H2             17.1810396015       -9.1547157466      -21.1201646635  SOLV      2733            0.0000000000
      8314      2745  TIP3      OH2            15.8227896015       -3.0748257466      -15.3763346635  SOLV      2734            0.0000000000
      8315      2745  TIP3      H1             15.1754996015       -3.5366557466      -15.9092146635  SOLV      2734            0.0000000000
      8316      2745  TIP3      H2             16.1772496015       -3.7464957466      -14.7937146635  SOLV      2734            0.0000000000
      8317      2746  TIP3      OH2            16.6927096015       -4.9941257466      -13.5717146635  SOLV      2735            0.0000000000
      8318      2746  TIP3      H1             16.3583896015       -5.8743957466      -13.3996946635  SOLV      2735            0.0000000000
      8319      2746  TIP3      H2             16.9149496015       -4.6486257466      -12.7071546635  SOLV      2735            0.0000000000
      8320      2747  TIP3      OH2            34.2411896015       -4.1844857466      -10.5912346635  SOLV      2736            0.0000000000
      8321      2747  TIP3      H1             34.2198596015       -3.9996457466       -9.6522946635  SOLV      2736            0.0000000000
      8322      2747  TIP3      H2             34.9318096015       -3.6160857466      -10.9320946635  SOLV      2736            0.0000000000
      8323      2748  TIP3      OH2            33.8044796015       -4.6173757466       -7.6693246635  SOLV      2737            0.0000000000
      8324      2748  TIP3      H1             33.3173496015       -5.3529657466       -8.0405846635  SOLV      2737            0.0000000000
      8325      2748  TIP3      H2             34.3537496015       -5.0109857466       -6.9913846635  SOLV      2737            0.0000000000
      8326      2749  TIP3      OH2            32.2552096015       -8.8275657466       -3.0312946635  SOLV      2738            0.0000000000
      8327      2749  TIP3      H1             31.3893196015       -8.9325957466       -2.6370646635  SOLV      2738            0.0000000000
      8328      2749  TIP3      H2             32.6317996015       -8.0692357466       -2.5848246635  SOLV      2738            0.0000000000
      8329      2750  TIP3      OH2            33.5561796015      -10.5711957466      -17.5170446635  SOLV      2739            0.0000000000
      8330      2750  TIP3      H1             34.4063196015      -10.1501057466      -17.3898846635  SOLV      2739            0.0000000000
      8331      2750  TIP3      H2             33.5616896015      -11.3111857466      -16.9099046635  SOLV      2739            0.0000000000
      8332      2751  TIP3      OH2            33.9507396015      -12.5174557466      -15.6934746635  SOLV      2740            0.0000000000
      8333      2751  TIP3      H1             33.2241996015      -12.9971957466      -15.2957146635  SOLV      2740            0.0000000000
      8334      2751  TIP3      H2             34.5320696015      -12.3119857466      -14.9613146635  SOLV      2740            0.0000000000
      8335      2752  TIP3      OH2            33.7098596015       -9.7327057466      -10.7457146635  SOLV      2741            0.0000000000
      8336      2752  TIP3      H1             34.5432796015      -10.1107057466      -11.0263546635  SOLV      2741            0.0000000000
      8337      2752  TIP3      H2             33.8218896015       -8.7895857466      -10.8648046635  SOLV      2741            0.0000000000
      8338      2753  TIP3      OH2            32.1960896015       -6.8549557466       -8.4388746635  SOLV      2742            0.0000000000
      8339      2753  TIP3      H1             31.5486196015       -6.5298057466       -7.8133546635  SOLV      2742            0.0000000000
      8340      2753  TIP3      H2             31.6784896015       -7.2951857466       -9.1130446635  SOLV      2742            0.0000000000
      8341      2754  TIP3      OH2            34.2190496015      -12.6166057466      -19.3023446635  SOLV      2743            0.0000000000
      8342      2754  TIP3      H1             33.6971596015      -12.2601957466      -20.0212546635  SOLV      2743            0.0000000000
      8343      2754  TIP3      H2             34.1859696015      -11.9418257466      -18.6242546635  SOLV      2743            0.0000000000
      8344      2755  TIP3      OH2            32.5679496015      -15.3770457466      -20.7516346635  SOLV      2744            0.0000000000
      8345      2755  TIP3      H1             32.6643896015      -14.7103457466      -21.4316646635  SOLV      2744            0.0000000000
      8346      2755  TIP3      H2             32.4279096015      -16.1924157466      -21.2330846635  SOLV      2744            0.0000000000
      8347      2756  TIP3      OH2            31.7374196015      -13.9968057466      -15.1306046635  SOLV      2745            0.0000000000
      8348      2756  TIP3      H1             31.5872996015      -14.9419457466      -15.1508246635  SOLV      2745            0.0000000000
      8349      2756  TIP3      H2             31.3838696015      -13.7156657466      -14.2866946635  SOLV      2745            0.0000000000
      8350      2757  TIP3      OH2            16.7726596015      -11.9185857466      -11.1202246635  SOLV      2746            0.0000000000
      8351      2757  TIP3      H1             16.9569496015      -12.0004157466      -12.0559346635  SOLV      2746            0.0000000000
      8352      2757  TIP3      H2             17.6219496015      -12.0428857466      -10.6965846635  SOLV      2746            0.0000000000
      8353      2758  TIP3      OH2            32.5937096015      -12.0264757466       -5.4917746635  SOLV      2747            0.0000000000
      8354      2758  TIP3      H1             33.1764396015      -12.7612457466       -5.3000546635  SOLV      2747            0.0000000000
      8355      2758  TIP3      H2             33.1576396015      -11.2544457466       -5.4451946635  SOLV      2747            0.0000000000
      8356      2759  TIP3      OH2            34.0904196015      -14.1238957466       -4.8072346635  SOLV      2748            0.0000000000
      8357      2759  TIP3      H1             33.2270896015      -14.5026857466       -4.9727646635  SOLV      2748            0.0000000000
      8358      2759  TIP3      H2             34.6947896015      -14.8624157466       -4.8816546635  SOLV      2748            0.0000000000
      8359      2760  TIP3      OH2            31.8153296015      -17.9690657466      -21.6340846635  SOLV      2749            0.0000000000
      8360      2760  TIP3      H1             32.4259096015      -18.3403857466      -20.9972646635  SOLV      2749            0.0000000000
      8361      2760  TIP3      H2             30.9784796015      -18.3903757466      -21.4380846635  SOLV      2749            0.0000000000
      8362      2761  TIP3      OH2            31.4478996015      -16.4142257466      -16.6680946635  SOLV      2750            0.0000000000
      8363      2761  TIP3      H1             31.7276096015      -17.3211857466      -16.5439246635  SOLV      2750            0.0000000000
      8364      2761  TIP3      H2             32.2070696015      -15.9800757466      -17.0571746635  SOLV      2750            0.0000000000
      8365      2762  TIP3      OH2            32.0597296015      -15.8324857466      -11.2322046635  SOLV      2751            0.0000000000
      8366      2762  TIP3      H1             32.9925296015      -15.6204957466      -11.2666046635  SOLV      2751            0.0000000000
      8367      2762  TIP3      H2             31.8244796015      -15.7312757466      -10.3099046635  SOLV      2751            0.0000000000
      8368      2763  TIP3      OH2            32.0889196015      -15.0959557466       -8.4562646635  SOLV      2752            0.0000000000
      8369      2763  TIP3      H1             31.2460496015      -14.8279157466       -8.0902846635  SOLV      2752            0.0000000000
      8370      2763  TIP3      H2             32.5313496015      -14.2737657466       -8.6671546635  SOLV      2752            0.0000000000
      8371      2764  TIP3      OH2            16.3701396015      -16.6480857466       -4.9793446635  SOLV      2753            0.0000000000
      8372      2764  TIP3      H1             17.2896296015      -16.7702557466       -4.7430346635  SOLV      2753            0.0000000000
      8373      2764  TIP3      H2             15.9205896015      -17.3981157466       -4.5899946635  SOLV      2753            0.0000000000
      8374      2765  TIP3      OH2            32.0613796015      -19.1512957466      -16.6198946635  SOLV      2754            0.0000000000
      8375      2765  TIP3      H1             32.2438796015      -19.6001457466      -15.7943946635  SOLV      2754            0.0000000000
      8376      2765  TIP3      H2             31.4616696015      -19.7358557466      -17.0834346635  SOLV      2754            0.0000000000
      8377      2766  TIP3      OH2            17.5913896015      -18.3359257466      -12.0880546635  SOLV      2755            0.0000000000
      8378      2766  TIP3      H1             18.0365496015      -19.1276757466      -11.7860846635  SOLV      2755            0.0000000000
      8379      2766  TIP3      H2             18.0576896015      -17.6194057466      -11.6574946635  SOLV      2755            0.0000000000
      8380      2767  TIP3      OH2            15.8954196015      -15.3366257466      -11.0190346635  SOLV      2756            0.0000000000
      8381      2767  TIP3      H1             16.3873996015      -15.5575757466      -11.8098346635  SOLV      2756            0.0000000000
      8382      2767  TIP3      H2             16.2575096015      -14.4962857466      -10.7380846635  SOLV      2756            0.0000000000
      8383      2768  TIP3      OH2            16.2090696015      -19.0787157466      -16.9647946635  SOLV      2757            0.0000000000
      8384      2768  TIP3      H1             15.2839096015      -18.8700557466      -17.0942446635  SOLV      2757            0.0000000000
      8385      2768  TIP3      H2             16.6630596015      -18.5946357466      -17.6545646635  SOLV      2757            0.0000000000
      8386      2769  TIP3      OH2            30.9797896015       -4.0945457466      -15.0190546635  SOLV      2758            0.0000000000
      8387      2769  TIP3      H1             31.6320796015       -4.4423357466      -15.6271446635  SOLV      2758            0.0000000000
      8388      2769  TIP3      H2             31.4901696015       -3.6062257466      -14.3730846635  SOLV      2758            0.0000000000
      8389      2770  TIP3      OH2            16.1726096015      -20.3408157466       -8.6205446635  SOLV      2759            0.0000000000
      8390      2770  TIP3      H1             15.5076596015      -20.5867857466       -7.9774546635  SOLV      2759            0.0000000000
      8391      2770  TIP3      H2             15.7297396015      -19.7187757466       -9.1977446635  SOLV      2759            0.0000000000
      8392      2771  TIP3      OH2            18.3645396015       -7.1654057466       -4.4759646635  SOLV      2760            0.0000000000
      8393      2771  TIP3      H1             17.5437896015       -6.9907557466       -4.9364946635  SOLV      2760            0.0000000000
      8394      2771  TIP3      H2             18.1123196015       -7.2389357466       -3.5555246635  SOLV      2760            0.0000000000
      8395      2772  TIP3      OH2            21.3188296015       -6.1912857466       -8.2175646635  SOLV      2761            0.0000000000
      8396      2772  TIP3      H1             20.8939396015       -5.3814357466       -8.5001046635  SOLV      2761            0.0000000000
      8397      2772  TIP3      H2             22.2231096015       -6.1058757466       -8.5195846635  SOLV      2761            0.0000000000
      8398      2773  TIP3      OH2            25.6299696015       -4.7922857466       -5.2581946635  SOLV      2762            0.0000000000
      8399      2773  TIP3      H1             25.8147196015       -5.1256757466       -4.3801646635  SOLV      2762            0.0000000000
      8400      2773  TIP3      H2             26.4764196015       -4.4824257466       -5.5802746635  SOLV      2762            0.0000000000
      8401      2774  TIP3      OH2            27.9750096015       -3.5063957466       -6.0140546635  SOLV      2763            0.0000000000
      8402      2774  TIP3      H1             28.6518996015       -4.1391657466       -6.2541346635  SOLV      2763            0.0000000000
      8403      2774  TIP3      H2             28.2968896015       -3.1053457466       -5.2067246635  SOLV      2763            0.0000000000
      8404      2775  TIP3      OH2            18.7204996015       -2.9348957466       -8.1700346635  SOLV      2764            0.0000000000
      8405      2775  TIP3      H1             18.0001396015       -2.4947957466       -8.6212646635  SOLV      2764            0.0000000000
      8406      2775  TIP3      H2             18.3548996015       -3.1854257466       -7.3216346635  SOLV      2764            0.0000000000
      8407      2776  TIP3      OH2            21.1877596015       -3.3345057466       -9.1403146635  SOLV      2765            0.0000000000
      8408      2776  TIP3      H1             20.3229796015       -3.2626557466       -8.7363046635  SOLV      2765            0.0000000000
      8409      2776  TIP3      H2             21.1326596015       -2.7877757466       -9.9240646635  SOLV      2765            0.0000000000
      8410      2777  TIP3      OH2            25.8983196015       -3.4466157466       -9.9647146635  SOLV      2766            0.0000000000
      8411      2777  TIP3      H1             25.4417196015       -2.9176457466      -10.6188746635  SOLV      2766            0.0000000000
      8412      2777  TIP3      H2             26.0611196015       -2.8434757466       -9.2394846635  SOLV      2766            0.0000000000
      8413      2778  TIP3      OH2            28.2259496015       -4.5686557466       -9.0196846635  SOLV      2767            0.0000000000
      8414      2778  TIP3      H1             27.3213196015       -4.4036357466       -9.2854746635  SOLV      2767            0.0000000000
      8415      2778  TIP3      H2             28.6548096015       -3.7154357466       -9.0853446635  SOLV      2767            0.0000000000
      8416      2779  TIP3      OH2            30.8301396015       -2.9987457466       -8.7249046635  SOLV      2768            0.0000000000
      8417      2779  TIP3      H1             30.6483396015       -2.0828557466       -8.9354146635  SOLV      2768            0.0000000000
      8418      2779  TIP3      H2             31.0069196015       -3.4090357466       -9.5714446635  SOLV      2768            0.0000000000
      8419      2780  TIP3      OH2            18.1353096015       -4.3116457466      -11.2598546635  SOLV      2769            0.0000000000
      8420      2780  TIP3      H1             18.1169096015       -4.7371357466      -10.4026246635  SOLV      2769            0.0000000000
      8421      2780  TIP3      H2             18.9400996015       -4.6301457466      -11.6686346635  SOLV      2769            0.0000000000
      8422      2781  TIP3      OH2            22.8138696015       -5.1318457466      -11.7560646635  SOLV      2770            0.0000000000
      8423      2781  TIP3      H1             23.0264396015       -6.0199457466      -12.0429746635  SOLV      2770            0.0000000000
      8424      2781  TIP3      H2             22.8783796015       -5.1660757466      -10.8016646635  SOLV      2770            0.0000000000
      8425      2782  TIP3      OH2            26.3222396015      -19.4677857466      -12.6117346635  SOLV      2771            0.0000000000
      8426      2782  TIP3      H1             25.6479196015      -20.0972257466      -12.3561546635  SOLV      2771            0.0000000000
      8427      2782  TIP3      H2             26.8861596015      -19.9518957466      -13.2149446635  SOLV      2771            0.0000000000
      8428      2783  TIP3      OH2            31.4649596015      -21.3603857466      -12.4990246635  SOLV      2772            0.0000000000
      8429      2783  TIP3      H1             32.0687196015      -20.8128457466      -13.0009246635  SOLV      2772            0.0000000000
      8430      2783  TIP3      H2             30.5951596015      -21.0413457466      -12.7396146635  SOLV      2772            0.0000000000
      8431      2784  TIP3      OH2            18.6489896015      -20.8337557466      -14.7897446635  SOLV      2773            0.0000000000
      8432      2784  TIP3      H1             17.8719696015      -21.0682657466      -15.2971546635  SOLV      2773            0.0000000000
      8433      2784  TIP3      H2             19.1793496015      -21.6305457466      -14.7809446635  SOLV      2773            0.0000000000
      8434      2785  TIP3      OH2            17.4853296015      -21.0359457466      -18.9861346635  SOLV      2774            0.0000000000
      8435      2785  TIP3      H1             17.9243996015      -20.4248957466      -19.5777846635  SOLV      2774            0.0000000000
      8436      2785  TIP3      H2             16.8515696015      -20.4975357466      -18.5121346635  SOLV      2774            0.0000000000
      8437      2786  TIP3      OH2            23.2282496015      -20.9070457466      -14.9764346635  SOLV      2775            0.0000000000
      8438      2786  TIP3      H1             24.1025896015      -20.5186157466      -15.0060046635  SOLV      2775            0.0000000000
      8439      2786  TIP3      H2             23.0923296015      -21.1222657466      -14.0537146635  SOLV      2775            0.0000000000
      8440      2787  TIP3      OH2            28.7850896015      -20.8770657466      -13.3272646635  SOLV      2776            0.0000000000
      8441      2787  TIP3      H1             28.8612496015      -20.7819057466      -14.2766646635  SOLV      2776            0.0000000000
      8442      2787  TIP3      H2             28.5100096015      -21.7847757466      -13.1983546635  SOLV      2776            0.0000000000
      8443      2788  TIP3      OH2            30.1383496015      -20.8512857466      -17.6347646635  SOLV      2777            0.0000000000
      8444      2788  TIP3      H1             29.4354596015      -20.2363657466      -17.8446246635  SOLV      2777            0.0000000000
      8445      2788  TIP3      H2             29.6934896015      -21.6886157466      -17.5036746635  SOLV      2777            0.0000000000
      8446      2789  TIP3      OH2            17.3862796015       -5.0877257466      -18.0886246635  SOLV      2778            0.0000000000
      8447      2789  TIP3      H1             16.7012696015       -5.1258357466      -18.7561146635  SOLV      2778            0.0000000000
      8448      2789  TIP3      H2             17.3899996015       -4.1749657466      -17.8004146635  SOLV      2778            0.0000000000
      8449      2790  TIP3      OH2            19.3462396015      -19.1197957466      -20.5437246635  SOLV      2779            0.0000000000
      8450      2790  TIP3      H1             19.8375796015      -19.7495557466      -21.0711746635  SOLV      2779            0.0000000000
      8451      2790  TIP3      H2             19.9698696015      -18.8238557466      -19.8806046635  SOLV      2779            0.0000000000
      8452      2791  TIP3      OH2            24.3722496015      -18.8266457466      -18.0866746635  SOLV      2780            0.0000000000
      8453      2791  TIP3      H1             24.5503796015      -19.4733257466      -17.4038146635  SOLV      2780            0.0000000000
      8454      2791  TIP3      H2             24.3188696015      -17.9928757466      -17.6195646635  SOLV      2780            0.0000000000
      8455      2792  TIP3      OH2            26.2506296015       -3.8782357466      -19.6910046635  SOLV      2781            0.0000000000
      8456      2792  TIP3      H1             27.1166496015       -3.5114957466      -19.8691846635  SOLV      2781            0.0000000000
      8457      2792  TIP3      H2             26.0039096015       -4.3174357466      -20.5049246635  SOLV      2781            0.0000000000
      8458      2793  TIP3      OH2            32.9595896015       -4.3152057466      -17.0118946635  SOLV      2782            0.0000000000
      8459      2793  TIP3      H1             32.7652996015       -5.0629957466      -17.5769346635  SOLV      2782            0.0000000000
      8460      2793  TIP3      H2             32.9205996015       -3.5571957466      -17.5951046635  SOLV      2782            0.0000000000
      8461      2794  TIP3      OH2            18.6067896015      -20.3195657466       -5.2721246635  SOLV      2783            0.0000000000
      8462      2794  TIP3      H1             18.2406096015      -21.0853057466       -4.8296546635  SOLV      2783            0.0000000000
      8463      2794  TIP3      H2             19.5196396015      -20.2905457466       -4.9856146635  SOLV      2783            0.0000000000
      8464      2795  TIP3      OH2            20.5798696015      -20.9691257466       -3.7364146635  SOLV      2784            0.0000000000
      8465      2795  TIP3      H1             21.4782296015      -21.2431057466       -3.9210746635  SOLV      2784            0.0000000000
      8466      2795  TIP3      H2             20.1931796015      -21.7115257466       -3.2721546635  SOLV      2784            0.0000000000
      8467      2796  TIP3      OH2            19.2043996015       -4.1676457466      -21.0634146635  SOLV      2785            0.0000000000
      8468      2796  TIP3      H1             18.9368596015       -3.8813557466      -20.1901046635  SOLV      2785            0.0000000000
      8469      2796  TIP3      H2             19.9756596015       -4.7137257466      -20.9111646635  SOLV      2785            0.0000000000
      8470      2797  TIP3      OH2            29.0010996015      -21.6365957466       -3.5541346635  SOLV      2786            0.0000000000
      8471      2797  TIP3      H1             29.0778196015      -22.0625257466       -2.7003646635  SOLV      2786            0.0000000000
      8472      2797  TIP3      H2             29.8947596015      -21.6231257466       -3.8967846635  SOLV      2786            0.0000000000
      8473      2798  TIP3      OH2            32.1772096015       -5.5639657466       -4.8617146635  SOLV      2787            0.0000000000
      8474      2798  TIP3      H1             31.3953996015       -5.7501657466       -5.3816546635  SOLV      2787            0.0000000000
      8475      2798  TIP3      H2             32.1051996015       -4.6345357466       -4.6444646635  SOLV      2787            0.0000000000
      8476      2799  TIP3      OH2            36.1091996015       -9.2659357466      -17.4755846635  SOLV      2788            0.0000000000
      8477      2799  TIP3      H1             35.8372896015       -9.0368357466      -18.3642946635  SOLV      2788            0.0000000000
      8478      2799  TIP3      H2             36.1547696015       -8.4280557466      -17.0150546635  SOLV      2788            0.0000000000
      8479      2800  TIP3      OH2            35.4389196015      -10.1612257466       -8.1406146635  SOLV      2789            0.0000000000
      8480      2800  TIP3      H1             34.9377596015      -10.1892857466       -8.9556446635  SOLV      2789            0.0000000000
      8481      2800  TIP3      H2             35.4442896015      -11.0669057466       -7.8308846635  SOLV      2789            0.0000000000
      8482      2801  TIP3      OH2            35.1891896015       -7.3808457466      -11.2565946635  SOLV      2790            0.0000000000
      8483      2801  TIP3      H1             36.1352496015       -7.5251457466      -11.2756446635  SOLV      2790            0.0000000000
      8484      2801  TIP3      H2             35.0768196015       -6.5965657466      -10.7194746635  SOLV      2790            0.0000000000
      8485      2802  TIP3      OH2            36.8849896015       -6.0513457466       -8.9451246635  SOLV      2791            0.0000000000
      8486      2802  TIP3      H1             37.1020196015       -6.9831057466       -8.9761546635  SOLV      2791            0.0000000000
      8487      2802  TIP3      H2             37.1313396015       -5.7768457466       -8.0618446635  SOLV      2791            0.0000000000
      8488      2803  TIP3      OH2            36.8069596015       -6.7765757466      -15.9227046635  SOLV      2792            0.0000000000
      8489      2803  TIP3      H1             35.9748196015       -6.3043057466      -15.8955646635  SOLV      2792            0.0000000000
      8490      2803  TIP3      H2             37.3527896015       -6.2668157466      -16.5213946635  SOLV      2792            0.0000000000
      8491      2804  TIP3      OH2            36.0953296015       -4.1642057466       -4.5929046635  SOLV      2793            0.0000000000
      8492      2804  TIP3      H1             36.6355496015       -4.3808057466       -3.8329846635  SOLV      2793            0.0000000000
      8493      2804  TIP3      H2             35.6141296015       -4.9696057466       -4.7826546635  SOLV      2793            0.0000000000
      8494      2805  TIP3      OH2            34.6787896015       -3.0748257466      -15.3763346635  SOLV      2794            0.0000000000
      8495      2805  TIP3      H1             34.0314996015       -3.5366557466      -15.9092146635  SOLV      2794            0.0000000000
      8496      2805  TIP3      H2             35.0332496015       -3.7464957466      -14.7937146635  SOLV      2794            0.0000000000
      8497      2806  TIP3      OH2            35.5487096015       -4.9941257466      -13.5717146635  SOLV      2795            0.0000000000
      8498      2806  TIP3      H1             35.2143896015       -5.8743957466      -13.3996946635  SOLV      2795            0.0000000000
      8499      2806  TIP3      H2             35.7709496015       -4.6486257466      -12.7071546635  SOLV      2795            0.0000000000
      8500      2807  TIP3      OH2            37.2205396015       -7.1654057466       -4.4759646635  SOLV      2796            0.0000000000
      8501      2807  TIP3      H1             36.3997896015       -6.9907557466       -4.9364946635  SOLV      2796            0.0000000000
      8502      2807  TIP3      H2             36.9683196015       -7.2389357466       -3.5555246635  SOLV      2796            0.0000000000
      8503      2808  TIP3      OH2            37.5764996015       -2.9348957466       -8.1700346635  SOLV      2797            0.0000000000
      8504      2808  TIP3      H1             36.8561396015       -2.4947957466       -8.6212646635  SOLV      2797            0.0000000000
      8505      2808  TIP3      H2             37.2108996015       -3.1854257466       -7.3216346635  SOLV      2797            0.0000000000
      8506      2809  TIP3      OH2            36.9913096015       -4.3116457466      -11.2598546635  SOLV      2798            0.0000000000
      8507      2809  TIP3      H1             36.9729096015       -4.7371357466      -10.4026246635  SOLV      2798            0.0000000000
      8508      2809  TIP3      H2             37.7960996015       -4.6301457466      -11.6686346635  SOLV      2798            0.0000000000
      8509      2810  TIP3      OH2            36.2422796015       -5.0877257466      -18.0886246635  SOLV      2799            0.0000000000
      8510      2810  TIP3      H1             35.5572696015       -5.1258357466      -18.7561146635  SOLV      2799            0.0000000000
      8511      2810  TIP3      H2             36.2459996015       -4.1749657466      -17.8004146635  SOLV      2799            0.0000000000
      8512      2811  TIP3      OH2           -28.8407503985        7.1784742534      -14.8309946635  SOLV      2800            0.0000000000
      8513      2811  TIP3      H1            -28.7516403985        8.1222942534      -14.9632846635  SOLV      2800            0.0000000000
      8514      2811  TIP3      H2            -29.4789903985        6.9031142534      -15.4890546635  SOLV      2800            0.0000000000
      8515      2812  TIP3      OH2           -29.9076203985        6.4335442534      -11.4121746635  SOLV      2801            0.0000000000
      8516      2812  TIP3      H1            -29.9458703985        5.7871742534      -10.7072146635  SOLV      2801            0.0000000000
      8517      2812  TIP3      H2            -30.2299703985        5.9669842534      -12.1833046635  SOLV      2801            0.0000000000
      8518      2813  TIP3      OH2           -29.0900503985       14.4767542534      -12.8986246635  SOLV      2802            0.0000000000
      8519      2813  TIP3      H1            -28.4704103985       13.8002242534      -13.1717046635  SOLV      2802            0.0000000000
      8520      2813  TIP3      H2            -29.2983103985       14.2588342534      -11.9901346635  SOLV      2802            0.0000000000
      8521      2814  TIP3      OH2           -31.5181803985        8.8656842534      -11.0060746635  SOLV      2803            0.0000000000
      8522      2814  TIP3      H1            -31.2143903985        8.1798242534      -11.6006646635  SOLV      2803            0.0000000000
      8523      2814  TIP3      H2            -30.7967803985        8.9845542534      -10.3882746635  SOLV      2803            0.0000000000
      8524      2815  TIP3      OH2           -22.8552003985        0.4672142534      -10.1454546635  SOLV      2804            0.0000000000
      8525      2815  TIP3      H1            -22.8059803985        1.0773342534       -9.4095446635  SOLV      2804            0.0000000000
      8526      2815  TIP3      H2            -22.4296903985        0.9283042534      -10.8683446635  SOLV      2804            0.0000000000
      8527      2816  TIP3      OH2           -28.3774803985        3.2599242534      -10.6785946635  SOLV      2805            0.0000000000
      8528      2816  TIP3      H1            -28.2348903985        2.3136242534      -10.6584346635  SOLV      2805            0.0000000000
      8529      2816  TIP3      H2            -28.4835803985        3.4669042534      -11.6071046635  SOLV      2805            0.0000000000
      8530      2817  TIP3      OH2           -35.2226503985        1.3615642534      -13.4061146635  SOLV      2806            0.0000000000
      8531      2817  TIP3      H1            -35.1795403985        2.2214142534      -13.8244846635  SOLV      2806            0.0000000000
      8532      2817  TIP3      H2            -35.6802403985        0.8090342534      -14.0397946635  SOLV      2806            0.0000000000
      8533      2818  TIP3      OH2           -27.5003803985        1.4921242534      -15.0052846635  SOLV      2807            0.0000000000
      8534      2818  TIP3      H1            -26.8539503985        1.1634442534      -14.3805246635  SOLV      2807            0.0000000000
      8535      2818  TIP3      H2            -26.9904403985        2.0100242534      -15.6281446635  SOLV      2807            0.0000000000
      8536      2819  TIP3      OH2           -33.4460503985        5.3082742534      -13.4288246635  SOLV      2808            0.0000000000
      8537      2819  TIP3      H1            -32.8299503985        4.7818142534      -12.9194246635  SOLV      2808            0.0000000000
      8538      2819  TIP3      H2            -34.0321703985        4.6681442534      -13.8324646635  SOLV      2808            0.0000000000
      8539      2820  TIP3      OH2           -22.4637403985        1.9451342534       -7.9094746635  SOLV      2809            0.0000000000
      8540      2820  TIP3      H1            -23.1522803985        2.6032042534       -8.0048146635  SOLV      2809            0.0000000000
      8541      2820  TIP3      H2            -22.4482803985        1.7479242534       -6.9729346635  SOLV      2809            0.0000000000
      8542      2821  TIP3      OH2           -36.4124603985        0.2794042534       -9.3320346635  SOLV      2810            0.0000000000
      8543      2821  TIP3      H1            -36.6312903985        0.8094642534      -10.0984346635  SOLV      2810            0.0000000000
      8544      2821  TIP3      H2            -37.0803703985        0.5059542534       -8.6848946635  SOLV      2810            0.0000000000
      8545      2822  TIP3      OH2           -29.0434803985        9.7795142534      -15.7881246635  SOLV      2811            0.0000000000
      8546      2822  TIP3      H1            -29.3389703985        9.4567442534      -16.6394346635  SOLV      2811            0.0000000000
      8547      2822  TIP3      H2            -29.3677003985       10.6791842534      -15.7468646635  SOLV      2811            0.0000000000
      8548      2823  TIP3      OH2           -33.8433203985        7.9549742534       -9.0446646635  SOLV      2812            0.0000000000
      8549      2823  TIP3      H1            -34.5834103985        8.5531242534       -8.9411446635  SOLV      2812            0.0000000000
      8550      2823  TIP3      H2            -33.1293703985        8.5089342534       -9.3603046635  SOLV      2812            0.0000000000
      8551      2824  TIP3      OH2           -25.7365403985        0.7830542534      -13.0246946635  SOLV      2813            0.0000000000
      8552      2824  TIP3      H1            -25.9517403985        0.0173942534      -12.4920946635  SOLV      2813            0.0000000000
      8553      2824  TIP3      H2            -25.0808003985        1.2555142534      -12.5118446635  SOLV      2813            0.0000000000
      8554      2825  TIP3      OH2           -36.8187303985        2.1715842534      -11.3798146635  SOLV      2814            0.0000000000
      8555      2825  TIP3      H1            -36.2051003985        2.8043442534      -11.0065746635  SOLV      2814            0.0000000000
      8556      2825  TIP3      H2            -36.3066603985        1.6990842534      -12.0361246635  SOLV      2814            0.0000000000
      8557      2826  TIP3      OH2           -25.6898303985       11.2116542534      -10.7627346635  SOLV      2815            0.0000000000
      8558      2826  TIP3      H1            -26.6314603985       11.2700442534      -10.6010446635  SOLV      2815            0.0000000000
      8559      2826  TIP3      H2            -25.4132203985       12.1177042534      -10.8997646635  SOLV      2815            0.0000000000
      8560      2827  TIP3      OH2           -25.3891303985       -0.5018157466       -9.3453446635  SOLV      2816            0.0000000000
      8561      2827  TIP3      H1            -26.1252103985        0.1088942534       -9.3832146635  SOLV      2816            0.0000000000
      8562      2827  TIP3      H2            -24.7057303985       -0.0869157466       -9.8717046635  SOLV      2816            0.0000000000
      8563      2828  TIP3      OH2           -32.3859903985       -2.4150857466      -11.8795446635  SOLV      2817            0.0000000000
      8564      2828  TIP3      H1            -32.5035703985       -3.3634857466      -11.9337146635  SOLV      2817            0.0000000000
      8565      2828  TIP3      H2            -33.2409803985       -2.0824757466      -11.6064346635  SOLV      2817            0.0000000000
      8566      2829  TIP3      OH2           -27.4377103985       12.9930042534      -14.1375746635  SOLV      2818            0.0000000000
      8567      2829  TIP3      H1            -27.0124803985       12.2857942534      -14.6226146635  SOLV      2818            0.0000000000
      8568      2829  TIP3      H2            -27.1207103985       13.7942742534      -14.5543546635  SOLV      2818            0.0000000000
      8569      2830  TIP3      OH2           -26.2780603985       10.8938542534      -15.6289146635  SOLV      2819            0.0000000000
      8570      2830  TIP3      H1            -26.5355803985       10.2038642534      -16.2403246635  SOLV      2819            0.0000000000
      8571      2830  TIP3      H2            -26.2069803985       10.4509742534      -14.7833246635  SOLV      2819            0.0000000000
      8572      2831  TIP3      OH2           -24.5920403985        9.4605242534       -7.1515646635  SOLV      2820            0.0000000000
      8573      2831  TIP3      H1            -24.4524103985        8.8687742534       -7.8908646635  SOLV      2820            0.0000000000
      8574      2831  TIP3      H2            -24.4247603985       10.3331142534       -7.5076846635  SOLV      2820            0.0000000000
      8575      2832  TIP3      OH2           -30.1195003985        6.4224742534      -17.3789646635  SOLV      2821            0.0000000000
      8576      2832  TIP3      H1            -30.8309503985        6.9574442534      -17.7309146635  SOLV      2821            0.0000000000
      8577      2832  TIP3      H2            -29.4285403985        6.4776842534      -18.0390746635  SOLV      2821            0.0000000000
      8578      2833  TIP3      OH2           -30.0655803985        4.8799042534      -20.3404646635  SOLV      2822            0.0000000000
      8579      2833  TIP3      H1            -29.3645903985        4.9025942534      -19.6890646635  SOLV      2822            0.0000000000
      8580      2833  TIP3      H2            -29.7632903985        4.2518742534      -20.9965346635  SOLV      2822            0.0000000000
      8581      2834  TIP3      OH2           -22.7501103985        5.8003242534       -9.0855246635  SOLV      2823            0.0000000000
      8582      2834  TIP3      H1            -23.4027003985        6.4948842534       -8.9964346635  SOLV      2823            0.0000000000
      8583      2834  TIP3      H2            -22.2850803985        6.0104142534       -9.8953646635  SOLV      2823            0.0000000000
      8584      2835  TIP3      OH2           -26.8163803985        4.8060642534       -7.3596746635  SOLV      2824            0.0000000000
      8585      2835  TIP3      H1            -26.7364703985        5.5695042534       -6.7878246635  SOLV      2824            0.0000000000
      8586      2835  TIP3      H2            -27.4176103985        5.0853042534       -8.0501646635  SOLV      2824            0.0000000000
      8587      2836  TIP3      OH2           -35.0683603985        7.2624242534      -14.5448746635  SOLV      2825            0.0000000000
      8588      2836  TIP3      H1            -35.3988403985        6.8917642534      -15.3631746635  SOLV      2825            0.0000000000
      8589      2836  TIP3      H2            -34.4799503985        6.5918242534      -14.1980446635  SOLV      2825            0.0000000000
      8590      2837  TIP3      OH2           -33.7016103985       10.6904842534      -11.8636546635  SOLV      2826            0.0000000000
      8591      2837  TIP3      H1            -33.7964803985       10.1117942534      -12.6201946635  SOLV      2826            0.0000000000
      8592      2837  TIP3      H2            -32.9722503985       10.3190542534      -11.3673746635  SOLV      2826            0.0000000000
      8593      2838  TIP3      OH2           -34.7018103985        6.0309842534      -10.9113746635  SOLV      2827            0.0000000000
      8594      2838  TIP3      H1            -34.1365603985        6.1524042534      -11.6742546635  SOLV      2827            0.0000000000
      8595      2838  TIP3      H2            -34.3829203985        6.6684842534      -10.2725246635  SOLV      2827            0.0000000000
      8596      2839  TIP3      OH2           -28.3925903985       11.5341742534      -10.1773246635  SOLV      2828            0.0000000000
      8597      2839  TIP3      H1            -28.6329303985       12.1964842534       -9.5294046635  SOLV      2828            0.0000000000
      8598      2839  TIP3      H2            -28.5907703985       10.6996942534       -9.7523646635  SOLV      2828            0.0000000000
      8599      2840  TIP3      OH2           -33.8217403985       10.4302542534       -6.1941846635  SOLV      2829            0.0000000000
      8600      2840  TIP3      H1            -34.1329903985       11.2125742534       -5.7388646635  SOLV      2829            0.0000000000
      8601      2840  TIP3      H2            -34.4717203985       10.2771642534       -6.8799846635  SOLV      2829            0.0000000000
      8602      2841  TIP3      OH2           -27.8427803985        5.7940942534      -18.7422546635  SOLV      2830            0.0000000000
      8603      2841  TIP3      H1            -27.2632303985        5.9441242534      -17.9953646635  SOLV      2830            0.0000000000
      8604      2841  TIP3      H2            -27.4287803985        6.2648342534      -19.4656146635  SOLV      2830            0.0000000000
      8605      2842  TIP3      OH2           -30.1162903985       12.5309442534      -15.3069446635  SOLV      2831            0.0000000000
      8606      2842  TIP3      H1            -29.6425303985       12.8265742534      -14.5295246635  SOLV      2831            0.0000000000
      8607      2842  TIP3      H2            -30.6793603985       13.2691042534      -15.5399846635  SOLV      2831            0.0000000000
      8608      2843  TIP3      OH2           -24.1439403985       -2.4558657466      -18.9292846635  SOLV      2832            0.0000000000
      8609      2843  TIP3      H1            -25.0438703985       -2.3169657466      -18.6342246635  SOLV      2832            0.0000000000
      8610      2843  TIP3      H2            -23.8921003985       -1.6244057466      -19.3311146635  SOLV      2832            0.0000000000
      8611      2844  TIP3      OH2           -36.0780903985        6.3318542534      -16.9555946635  SOLV      2833            0.0000000000
      8612      2844  TIP3      H1            -36.3699603985        7.1000242534      -17.4464646635  SOLV      2833            0.0000000000
      8613      2844  TIP3      H2            -36.7525703985        5.6724742534      -17.1184546635  SOLV      2833            0.0000000000
      8614      2845  TIP3      OH2           -22.9548003985       11.9103742534      -20.5528946635  SOLV      2834            0.0000000000
      8615      2845  TIP3      H1            -22.8814503985       12.8493942534      -20.3823646635  SOLV      2834            0.0000000000
      8616      2845  TIP3      H2            -22.0492903985       11.6052342534      -20.6091646635  SOLV      2834            0.0000000000
      8617      2846  TIP3      OH2           -22.0369603985       12.1411242534       -5.5742246635  SOLV      2835            0.0000000000
      8618      2846  TIP3      H1            -22.0862803985       11.1859342534       -5.6114646635  SOLV      2835            0.0000000000
      8619      2846  TIP3      H2            -22.8637303985       12.4086542534       -5.1728446635  SOLV      2835            0.0000000000
      8620      2847  TIP3      OH2           -31.0585603985       11.7150442534       -6.6980846635  SOLV      2836            0.0000000000
      8621      2847  TIP3      H1            -30.9711003985       12.5415042534       -6.2231746635  SOLV      2836            0.0000000000
      8622      2847  TIP3      H2            -31.9220503985       11.3854242534       -6.4491546635  SOLV      2836            0.0000000000
      8623      2848  TIP3      OH2           -30.6439803985       15.4874142534      -16.8920246635  SOLV      2837            0.0000000000
      8624      2848  TIP3      H1            -30.7193803985       15.3661342534      -17.8385046635  SOLV      2837            0.0000000000
      8625      2848  TIP3      H2            -30.6111103985       16.4366842534      -16.7735646635  SOLV      2837            0.0000000000
      8626      2849  TIP3      OH2           -27.5423803985       14.6414342534      -19.8897846635  SOLV      2838            0.0000000000
      8627      2849  TIP3      H1            -27.1675403985       13.8970442534      -20.3605246635  SOLV      2838            0.0000000000
      8628      2849  TIP3      H2            -27.5380103985       14.3714942534      -18.9714546635  SOLV      2838            0.0000000000
      8629      2850  TIP3      OH2           -27.8735703985       14.5671442534      -17.1405646635  SOLV      2839            0.0000000000
      8630      2850  TIP3      H1            -28.8085903985       14.6673342534      -16.9618646635  SOLV      2839            0.0000000000
      8631      2850  TIP3      H2            -27.5933803985       13.8577442534      -16.5622446635  SOLV      2839            0.0000000000
      8632      2851  TIP3      OH2           -24.8849803985        3.6343742534       -5.0940046635  SOLV      2840            0.0000000000
      8633      2851  TIP3      H1            -25.2923003985        4.1149342534       -5.8146746635  SOLV      2840            0.0000000000
      8634      2851  TIP3      H2            -24.8444103985        2.7289742534       -5.4019246635  SOLV      2840            0.0000000000
      8635      2852  TIP3      OH2           -35.1172303985       -1.5116357466      -11.1019146635  SOLV      2841            0.0000000000
      8636      2852  TIP3      H1            -35.9788603985       -1.5988157466      -11.5096246635  SOLV      2841            0.0000000000
      8637      2852  TIP3      H2            -35.1396603985       -0.6556257466      -10.6741546635  SOLV      2841            0.0000000000
      8638      2853  TIP3      OH2           -30.4544503985       -1.7895957466       -7.7272146635  SOLV      2842            0.0000000000
      8639      2853  TIP3      H1            -30.0341403985       -2.2048857466       -6.9741546635  SOLV      2842            0.0000000000
      8640      2853  TIP3      H2            -31.3874903985       -1.9682657466       -7.6100146635  SOLV      2842            0.0000000000
      8641      2854  TIP3      OH2           -27.1279603985        1.9659242534       -6.8737646635  SOLV      2843            0.0000000000
      8642      2854  TIP3      H1            -27.6420103985        1.8401442534       -6.0761646635  SOLV      2843            0.0000000000
      8643      2854  TIP3      H2            -27.2834903985        2.8782342534       -7.1181446635  SOLV      2843            0.0000000000
      8644      2855  TIP3      OH2           -26.3654703985        6.8269242534      -21.1124646635  SOLV      2844            0.0000000000
      8645      2855  TIP3      H1            -26.3233903985        6.6043142534      -22.0424646635  SOLV      2844            0.0000000000
      8646      2855  TIP3      H2            -25.5162603985        7.2256342534      -20.9224746635  SOLV      2844            0.0000000000
      8647      2856  TIP3      OH2           -30.7927203985        0.7027442534      -20.4421346635  SOLV      2845            0.0000000000
      8648      2856  TIP3      H1            -31.0462403985        0.7219042534      -19.5193246635  SOLV      2845            0.0000000000
      8649      2856  TIP3      H2            -31.0495103985       -0.1687157466      -20.7435146635  SOLV      2845            0.0000000000
      8650      2857  TIP3      OH2           -35.0262203985        3.4538142534      -10.0068946635  SOLV      2846            0.0000000000
      8651      2857  TIP3      H1            -35.6680103985        3.4135442534       -9.2978846635  SOLV      2846            0.0000000000
      8652      2857  TIP3      H2            -34.9890203985        4.3802842534      -10.2445946635  SOLV      2846            0.0000000000
      8653      2858  TIP3      OH2           -35.0293103985        3.6748242534      -15.0948946635  SOLV      2847            0.0000000000
      8654      2858  TIP3      H1            -35.9220203985        3.3344342534      -15.1535146635  SOLV      2847            0.0000000000
      8655      2858  TIP3      H2            -34.5786503985        3.2979142534      -15.8505746635  SOLV      2847            0.0000000000
      8656      2859  TIP3      OH2           -29.4937603985        4.0908542534      -16.2778146635  SOLV      2848            0.0000000000
      8657      2859  TIP3      H1            -29.9027303985        4.9057142534      -16.5693346635  SOLV      2848            0.0000000000
      8658      2859  TIP3      H2            -28.7731403985        3.9508642534      -16.8921046635  SOLV      2848            0.0000000000
      8659      2860  TIP3      OH2           -30.3916003985        4.2664942534       -4.7897446635  SOLV      2849            0.0000000000
      8660      2860  TIP3      H1            -30.9542203985        3.5616542534       -4.4689646635  SOLV      2849            0.0000000000
      8661      2860  TIP3      H2            -29.5652603985        4.1456842534       -4.3219846635  SOLV      2849            0.0000000000
      8662      2861  TIP3      OH2           -28.4889903985        3.5368942534      -13.4638446635  SOLV      2850            0.0000000000
      8663      2861  TIP3      H1            -28.6845403985        4.1425742534      -14.1787846635  SOLV      2850            0.0000000000
      8664      2861  TIP3      H2            -28.3077303985        2.7034142534      -13.8982146635  SOLV      2850            0.0000000000
      8665      2862  TIP3      OH2           -37.2761703985        3.7741642534       -8.1396946635  SOLV      2851            0.0000000000
      8666      2862  TIP3      H1            -37.3142303985        4.1743242534       -7.2709846635  SOLV      2851            0.0000000000
      8667      2862  TIP3      H2            -37.7670603985        2.9574042534       -8.0494046635  SOLV      2851            0.0000000000
      8668      2863  TIP3      OH2           -33.9104303985        1.1483942534      -21.3410946635  SOLV      2852            0.0000000000
      8669      2863  TIP3      H1            -34.3413603985        0.7034042534      -20.6113546635  SOLV      2852            0.0000000000
      8670      2863  TIP3      H2            -34.6285603985        1.5200242534      -21.8533446635  SOLV      2852            0.0000000000
      8671      2864  TIP3      OH2           -29.2250703985        5.1750242534       -8.7926046635  SOLV      2853            0.0000000000
      8672      2864  TIP3      H1            -28.9015903985        4.5439942534       -9.4355546635  SOLV      2853            0.0000000000
      8673      2864  TIP3      H2            -29.6651403985        4.6402442534       -8.1318646635  SOLV      2853            0.0000000000
      8674      2865  TIP3      OH2           -32.4477803985        1.1025742534      -14.0084846635  SOLV      2854            0.0000000000
      8675      2865  TIP3      H1            -33.3586703985        1.1592542534      -13.7198846635  SOLV      2854            0.0000000000
      8676      2865  TIP3      H2            -31.9424903985        1.0421242534      -13.1977646635  SOLV      2854            0.0000000000
      8677      2866  TIP3      OH2           -37.6194403985        2.7312042534      -15.1817246635  SOLV      2855            0.0000000000
      8678      2866  TIP3      H1            -38.5086403985        2.8307542534      -15.5217646635  SOLV      2855            0.0000000000
      8679      2866  TIP3      H2            -37.3229503985        1.8895042534      -15.5279346635  SOLV      2855            0.0000000000
      8680      2867  TIP3      OH2           -33.9662603985        2.7314642534      -17.5252646635  SOLV      2856            0.0000000000
      8681      2867  TIP3      H1            -33.0347103985        2.8604642534      -17.3469546635  SOLV      2856            0.0000000000
      8682      2867  TIP3      H2            -34.1812303985        3.4008942534      -18.1747946635  SOLV      2856            0.0000000000
      8683      2868  TIP3      OH2           -28.0425903985        0.3372042534      -10.7443046635  SOLV      2857            0.0000000000
      8684      2868  TIP3      H1            -28.7194303985        0.4685142534      -10.0803346635  SOLV      2857            0.0000000000
      8685      2868  TIP3      H2            -28.5281003985        0.1821542534      -11.5545346635  SOLV      2857            0.0000000000
      8686      2869  TIP3      OH2           -35.2922403985        3.9256842534      -19.9586546635  SOLV      2858            0.0000000000
      8687      2869  TIP3      H1            -35.8347303985        3.5460642534      -20.6498946635  SOLV      2858            0.0000000000
      8688      2869  TIP3      H2            -34.4587503985        4.1201542534      -20.3872446635  SOLV      2858            0.0000000000
      8689      2870  TIP3      OH2           -24.7550803985       16.0087442534       -4.4675446635  SOLV      2859            0.0000000000
      8690      2870  TIP3      H1            -24.5552103985       16.4329342534       -5.3020146635  SOLV      2859            0.0000000000
      8691      2870  TIP3      H2            -24.0997103985       16.3525642534       -3.8605046635  SOLV      2859            0.0000000000
      8692      2871  TIP3      OH2           -31.1278103985        3.8898742534      -12.1215246635  SOLV      2860            0.0000000000
      8693      2871  TIP3      H1            -30.5634703985        3.3435342534      -12.6685646635  SOLV      2860            0.0000000000
      8694      2871  TIP3      H2            -31.2754703985        3.3680642534      -11.3327646635  SOLV      2860            0.0000000000
      8695      2872  TIP3      OH2           -36.1258403985        0.0264842534      -15.7030446635  SOLV      2861            0.0000000000
      8696      2872  TIP3      H1            -36.4428903985       -0.8759857466      -15.7385046635  SOLV      2861            0.0000000000
      8697      2872  TIP3      H2            -35.3444303985        0.0282242534      -16.2558846635  SOLV      2861            0.0000000000
      8698      2873  TIP3      OH2           -32.5012203985        2.2784842534       -9.7074846635  SOLV      2862            0.0000000000
      8699      2873  TIP3      H1            -33.3366903985        2.7324342534       -9.5972446635  SOLV      2862            0.0000000000
      8700      2873  TIP3      H2            -31.9771603985        2.5543342534       -8.9554946635  SOLV      2862            0.0000000000
      8701      2874  TIP3      OH2           -31.9569603985        8.4912542534      -18.0228446635  SOLV      2863            0.0000000000
      8702      2874  TIP3      H1            -32.7018603985        7.9837842534      -18.3450546635  SOLV      2863            0.0000000000
      8703      2874  TIP3      H2            -32.0912403985        8.5400542534      -17.0763646635  SOLV      2863            0.0000000000
      8704      2875  TIP3      OH2           -24.8070703985        7.6240742534       -9.2360846635  SOLV      2864            0.0000000000
      8705      2875  TIP3      H1            -24.1651903985        8.0807042534       -9.7798646635  SOLV      2864            0.0000000000
      8706      2875  TIP3      H2            -25.6373803985        7.7373142534       -9.6986746635  SOLV      2864            0.0000000000
      8707      2876  TIP3      OH2           -28.0592803985        1.3052442534      -19.8235846635  SOLV      2865            0.0000000000
      8708      2876  TIP3      H1            -28.9978603985        1.4168042534      -19.9747046635  SOLV      2865            0.0000000000
      8709      2876  TIP3      H2            -27.7620703985        2.1619342534      -19.5170146635  SOLV      2865            0.0000000000
      8710      2877  TIP3      OH2           -30.4377503985        8.6755842534       -6.7859346635  SOLV      2866            0.0000000000
      8711      2877  TIP3      H1            -30.7831403985        8.2938242534       -5.9789746635  SOLV      2866            0.0000000000
      8712      2877  TIP3      H2            -30.6377403985        9.6089442534       -6.7146446635  SOLV      2866            0.0000000000
      8713      2878  TIP3      OH2           -27.3409303985        3.1725142534      -18.1628446635  SOLV      2867            0.0000000000
      8714      2878  TIP3      H1            -26.4490303985        3.0350142534      -17.8437246635  SOLV      2867            0.0000000000
      8715      2878  TIP3      H2            -27.2845703985        3.9631242534      -18.6994946635  SOLV      2867            0.0000000000
      8716      2879  TIP3      OH2           -36.8321303985        7.7862542534      -12.2530546635  SOLV      2868            0.0000000000
      8717      2879  TIP3      H1            -36.0874103985        7.7838242534      -12.8544046635  SOLV      2868            0.0000000000
      8718      2879  TIP3      H2            -36.7544703985        6.9626342534      -11.7715446635  SOLV      2868            0.0000000000
      8719      2880  TIP3      OH2           -29.8315503985        9.9496842534      -18.9973846635  SOLV      2869            0.0000000000
      8720      2880  TIP3      H1            -30.1267103985       10.7764742534      -18.6159046635  SOLV      2869            0.0000000000
      8721      2880  TIP3      H2            -30.5345503985        9.3303742534      -18.8012446635  SOLV      2869            0.0000000000
      8722      2881  TIP3      OH2           -32.8076703985        5.7639342534       -4.7252346635  SOLV      2870            0.0000000000
      8723      2881  TIP3      H1            -33.1035903985        5.5982342534       -5.6203246635  SOLV      2870            0.0000000000
      8724      2881  TIP3      H2            -31.8761503985        5.5439642534       -4.7358446635  SOLV      2870            0.0000000000
      8725      2882  TIP3      OH2           -28.1873903985       11.1371342534       -6.8354346635  SOLV      2871            0.0000000000
      8726      2882  TIP3      H1            -29.0879603985       11.3203942534       -7.1030446635  SOLV      2871            0.0000000000
      8727      2882  TIP3      H2            -28.1532803985       11.3960642534       -5.9145546635  SOLV      2871            0.0000000000
      8728      2883  TIP3      OH2           -22.4560603985        3.3819242534      -18.4681746635  SOLV      2872            0.0000000000
      8729      2883  TIP3      H1            -23.0104303985        2.9857242534      -19.1404246635  SOLV      2872            0.0000000000
      8730      2883  TIP3      H2            -22.3557003985        4.2924442534      -18.7458446635  SOLV      2872            0.0000000000
      8731      2884  TIP3      OH2           -22.4928603985        9.1820942534       -5.6310246635  SOLV      2873            0.0000000000
      8732      2884  TIP3      H1            -23.3440103985        9.4204742534       -5.9983846635  SOLV      2873            0.0000000000
      8733      2884  TIP3      H2            -21.9025203985        9.1654142534       -6.3843146635  SOLV      2873            0.0000000000
      8734      2885  TIP3      OH2           -24.1608903985       12.1679642534      -18.0029646635  SOLV      2874            0.0000000000
      8735      2885  TIP3      H1            -24.5337803985       11.3423442534      -17.6939046635  SOLV      2874            0.0000000000
      8736      2885  TIP3      H2            -23.8835403985       11.9849042534      -18.9006246635  SOLV      2874            0.0000000000
      8737      2886  TIP3      OH2           -27.0005003985        6.9759142534      -10.9817746635  SOLV      2875            0.0000000000
      8738      2886  TIP3      H1            -27.9288103985        6.7441042534      -11.0088446635  SOLV      2875            0.0000000000
      8739      2886  TIP3      H2            -26.5493903985        6.1988942534      -11.3118946635  SOLV      2875            0.0000000000
      8740      2887  TIP3      OH2           -34.4571903985       11.3040742534      -14.8489046635  SOLV      2876            0.0000000000
      8741      2887  TIP3      H1            -33.9299703985       12.0775142534      -15.0490246635  SOLV      2876            0.0000000000
      8742      2887  TIP3      H2            -35.3373403985       11.5289942534      -15.1505046635  SOLV      2876            0.0000000000
      8743      2888  TIP3      OH2           -33.0299603985        8.9670642534      -15.2724746635  SOLV      2877            0.0000000000
      8744      2888  TIP3      H1            -33.2709603985        9.8925042534      -15.2309446635  SOLV      2877            0.0000000000
      8745      2888  TIP3      H2            -33.7706003985        8.5081942534      -14.8760846635  SOLV      2877            0.0000000000
      8746      2889  TIP3      OH2           -32.5153003985       13.1164242534       -8.9573646635  SOLV      2878            0.0000000000
      8747      2889  TIP3      H1            -32.1528303985       13.9709842534       -9.1909246635  SOLV      2878            0.0000000000
      8748      2889  TIP3      H2            -31.9837803985       12.8245842534       -8.2167346635  SOLV      2878            0.0000000000
      8749      2890  TIP3      OH2           -28.9712203985        9.2154942534       -9.2568046635  SOLV      2879            0.0000000000
      8750      2890  TIP3      H1            -29.3970903985        8.9876642534       -8.4304046635  SOLV      2879            0.0000000000
      8751      2890  TIP3      H2            -28.3906403985        8.4766742534       -9.4392746635  SOLV      2879            0.0000000000
      8752      2891  TIP3      OH2           -26.7683303985       10.1445442534      -20.1829046635  SOLV      2880            0.0000000000
      8753      2891  TIP3      H1            -26.4150203985        9.7645242534      -19.3785546635  SOLV      2880            0.0000000000
      8754      2891  TIP3      H2            -27.7169803985       10.0510242534      -20.0959746635  SOLV      2880            0.0000000000
      8755      2892  TIP3      OH2           -26.3128003985       13.7674442534       -6.7873246635  SOLV      2881            0.0000000000
      8756      2892  TIP3      H1            -26.9144803985       13.2117342534       -7.2826946635  SOLV      2881            0.0000000000
      8757      2892  TIP3      H2            -26.0314303985       14.4344242534       -7.4135846635  SOLV      2881            0.0000000000
      8758      2893  TIP3      OH2           -38.1902103985        1.0002142534       -7.3800646635  SOLV      2882            0.0000000000
      8759      2893  TIP3      H1            -39.0829803985        1.3387542534       -7.4476646635  SOLV      2882            0.0000000000
      8760      2893  TIP3      H2            -38.2889303985        0.1448242534       -6.9619846635  SOLV      2882            0.0000000000
      8761      2894  TIP3      OH2           -25.9024003985        8.8167442534      -17.9561146635  SOLV      2883            0.0000000000
      8762      2894  TIP3      H1            -26.1796403985        8.0886742534      -17.4000046635  SOLV      2883            0.0000000000
      8763      2894  TIP3      H2            -24.9751003985        8.9359442534      -17.7508546635  SOLV      2883            0.0000000000
      8764      2895  TIP3      OH2           -33.7404903985       10.8265342534      -19.2796446635  SOLV      2884            0.0000000000
      8765      2895  TIP3      H1            -33.5936903985       10.3065142534      -18.4895546635  SOLV      2884            0.0000000000
      8766      2895  TIP3      H2            -33.7433203985       11.7332942534      -18.9730546635  SOLV      2884            0.0000000000
      8767      2896  TIP3      OH2           -29.4558703985        0.7412442534       -8.4902046635  SOLV      2885            0.0000000000
      8768      2896  TIP3      H1            -28.7570803985        0.8151142534       -7.8402346635  SOLV      2885            0.0000000000
      8769      2896  TIP3      H2            -29.8367303985       -0.1232557466       -8.3359146635  SOLV      2885            0.0000000000
      8770      2897  TIP3      OH2           -28.6713803985        0.3934142534      -17.3929746635  SOLV      2886            0.0000000000
      8771      2897  TIP3      H1            -28.4515503985        0.8649542534      -18.1964346635  SOLV      2886            0.0000000000
      8772      2897  TIP3      H2            -28.1129803985        0.7876742534      -16.7229146635  SOLV      2886            0.0000000000
      8773      2898  TIP3      OH2           -31.0027703985       12.5238942534      -18.5302246635  SOLV      2887            0.0000000000
      8774      2898  TIP3      H1            -31.8191603985       13.0208642534      -18.4777946635  SOLV      2887            0.0000000000
      8775      2898  TIP3      H2            -30.4731403985       12.9992442534      -19.1703446635  SOLV      2887            0.0000000000
      8776      2899  TIP3      OH2           -31.4713903985        2.1212942534      -16.5581346635  SOLV      2888            0.0000000000
      8777      2899  TIP3      H1            -30.6591303985        2.6256142534      -16.5119646635  SOLV      2888            0.0000000000
      8778      2899  TIP3      H2            -31.7160903985        1.9762642534      -15.6441746635  SOLV      2888            0.0000000000
      8779      2900  TIP3      OH2           -30.9357503985        3.1075642534       -7.3734746635  SOLV      2889            0.0000000000
      8780      2900  TIP3      H1            -30.8167203985        3.6811042534       -6.6164346635  SOLV      2889            0.0000000000
      8781      2900  TIP3      H2            -30.2802903985        2.4195042534       -7.2586946635  SOLV      2889            0.0000000000
      8782      2901  TIP3      OH2           -30.5877203985       -0.7974057466      -15.6200246635  SOLV      2890            0.0000000000
      8783      2901  TIP3      H1            -30.9343703985       -0.1803457466      -14.9755946635  SOLV      2890            0.0000000000
      8784      2901  TIP3      H2            -29.9290303985       -0.2968357466      -16.1014746635  SOLV      2890            0.0000000000
      8785      2902  TIP3      OH2           -33.6644603985       13.5676142534      -18.5485346635  SOLV      2891            0.0000000000
      8786      2902  TIP3      H1            -33.5035903985       14.3673642534      -19.0492746635  SOLV      2891            0.0000000000
      8787      2902  TIP3      H2            -33.8616803985       13.8742142534      -17.6634746635  SOLV      2891            0.0000000000
      8788      2903  TIP3      OH2           -34.9300203985        0.2655342534      -18.9327746635  SOLV      2892            0.0000000000
      8789      2903  TIP3      H1            -35.0135403985        1.1538442534      -18.5861346635  SOLV      2892            0.0000000000
      8790      2903  TIP3      H2            -34.0399903985        0.0002042534      -18.7010946635  SOLV      2892            0.0000000000
      8791      2904  TIP3      OH2           -24.7311703985        1.0145942534       -6.5385046635  SOLV      2893            0.0000000000
      8792      2904  TIP3      H1            -25.6475903985        1.2767642534       -6.6261346635  SOLV      2893            0.0000000000
      8793      2904  TIP3      H2            -24.3956703985        1.0114942534       -7.4349746635  SOLV      2893            0.0000000000
      8794      2905  TIP3      OH2           -26.1290703985        4.7646942534      -12.4427746635  SOLV      2894            0.0000000000
      8795      2905  TIP3      H1            -26.9266303985        4.3497142534      -12.7712746635  SOLV      2894            0.0000000000
      8796      2905  TIP3      H2            -25.6839603985        4.0740642534      -11.9517246635  SOLV      2894            0.0000000000
      8797      2906  TIP3      OH2           -25.0426103985       14.0209442534      -10.8204246635  SOLV      2895            0.0000000000
      8798      2906  TIP3      H1            -25.1981803985       14.6993842534      -11.4774946635  SOLV      2895            0.0000000000
      8799      2906  TIP3      H2            -24.1099703985       14.0928742534      -10.6173646635  SOLV      2895            0.0000000000
      8800      2907  TIP3      OH2           -37.5473703985       -1.8612857466      -12.0832846635  SOLV      2896            0.0000000000
      8801      2907  TIP3      H1            -37.7763903985       -1.8020357466      -13.0107846635  SOLV      2896            0.0000000000
      8802      2907  TIP3      H2            -37.9900303985       -2.6527357466      -11.7768746635  SOLV      2896            0.0000000000
      8803      2908  TIP3      OH2           -34.7313303985       13.6112342534       -2.9724846635  SOLV      2897            0.0000000000
      8804      2908  TIP3      H1            -33.9636103985       13.1523142534       -2.6315646635  SOLV      2897            0.0000000000
      8805      2908  TIP3      H2            -34.7527103985       13.3852142534       -3.9023646635  SOLV      2897            0.0000000000
      8806      2909  TIP3      OH2           -28.1544603985       11.9913442534       -4.2433346635  SOLV      2898            0.0000000000
      8807      2909  TIP3      H1            -28.5055103985       11.1346442534       -4.0002946635  SOLV      2898            0.0000000000
      8808      2909  TIP3      H2            -27.4281403985       12.1340142534       -3.6364346635  SOLV      2898            0.0000000000
      8809      2910  TIP3      OH2           -26.0350803985       12.9362842534      -21.3635046635  SOLV      2899            0.0000000000
      8810      2910  TIP3      H1            -25.7520403985       12.1418042534      -20.9108146635  SOLV      2899            0.0000000000
      8811      2910  TIP3      H2            -25.2952903985       13.1693842534      -21.9243946635  SOLV      2899            0.0000000000
      8812      2911  TIP3      OH2           -35.0803503985        8.8457742534      -21.5060146635  SOLV      2900            0.0000000000
      8813      2911  TIP3      H1            -35.0159403985        8.0517342534      -20.9753746635  SOLV      2900            0.0000000000
      8814      2911  TIP3      H2            -34.4274303985        8.7270542534      -22.1958146635  SOLV      2900            0.0000000000
      8815      2912  TIP3      OH2           -32.7661103985        8.4720142534       -4.2058346635  SOLV      2901            0.0000000000
      8816      2912  TIP3      H1            -33.0947303985        8.7428242534       -5.0630946635  SOLV      2901            0.0000000000
      8817      2912  TIP3      H2            -32.6142903985        7.5309942534       -4.2933346635  SOLV      2901            0.0000000000
      8818      2913  TIP3      OH2           -27.0315903985        8.3877442534       -6.8226046635  SOLV      2902            0.0000000000
      8819      2913  TIP3      H1            -26.2861103985        8.9761142534       -6.9422046635  SOLV      2902            0.0000000000
      8820      2913  TIP3      H2            -27.7889103985        8.9697142534       -6.7592946635  SOLV      2902            0.0000000000
      8821      2914  TIP3      OH2           -34.6420403985        4.7111042534       -6.8442546635  SOLV      2903            0.0000000000
      8822      2914  TIP3      H1            -35.2604303985        5.3857642534       -6.5637846635  SOLV      2903            0.0000000000
      8823      2914  TIP3      H2            -34.2979203985        5.0324942534       -7.6776346635  SOLV      2903            0.0000000000
      8824      2915  TIP3      OH2           -32.8599303985        5.0615742534      -20.9378946635  SOLV      2904            0.0000000000
      8825      2915  TIP3      H1            -33.0404303985        4.9066942534      -21.8650646635  SOLV      2904            0.0000000000
      8826      2915  TIP3      H2            -31.9098803985        5.1694442534      -20.8931046635  SOLV      2904            0.0000000000
      8827      2916  TIP3      OH2           -29.6222203985        7.1826342534       -3.5667746635  SOLV      2905            0.0000000000
      8828      2916  TIP3      H1            -28.6691003985        7.2665442534       -3.5941746635  SOLV      2905            0.0000000000
      8829      2916  TIP3      H2            -29.7827603985        6.4708142534       -2.9472846635  SOLV      2905            0.0000000000
      8830      2917  TIP3      OH2           -23.4701003985        7.4159942534      -21.4920846635  SOLV      2906            0.0000000000
      8831      2917  TIP3      H1            -23.7436203985        6.9915442534      -22.3052546635  SOLV      2906            0.0000000000
      8832      2917  TIP3      H2            -23.4306903985        8.3474442534      -21.7090446635  SOLV      2906            0.0000000000
      8833      2918  TIP3      OH2           -34.3026703985        2.0661842534       -5.7619446635  SOLV      2907            0.0000000000
      8834      2918  TIP3      H1            -34.1525803985        1.3373142534       -6.3639746635  SOLV      2907            0.0000000000
      8835      2918  TIP3      H2            -34.3004303985        2.8433542534       -6.3207246635  SOLV      2907            0.0000000000
      8836      2919  TIP3      OH2           -33.8901003985        0.4357642534       -8.2692046635  SOLV      2908            0.0000000000
      8837      2919  TIP3      H1            -33.3543503985        0.8874342534       -8.9212746635  SOLV      2908            0.0000000000
      8838      2919  TIP3      H2            -34.7421403985        0.3277442534       -8.6917946635  SOLV      2908            0.0000000000
      8839      2920  TIP3      OH2           -32.3082603985        5.8753842534       -8.0296846635  SOLV      2909            0.0000000000
      8840      2920  TIP3      H1            -31.5577803985        5.7191342534       -8.6029046635  SOLV      2909            0.0000000000
      8841      2920  TIP3      H2            -32.6474303985        6.7270442534       -8.3051346635  SOLV      2909            0.0000000000
      8842      2921  TIP3      OH2           -27.8926403985        3.6905642534       -3.0011546635  SOLV      2910            0.0000000000
      8843      2921  TIP3      H1            -27.7005103985        2.7595042534       -3.1127046635  SOLV      2910            0.0000000000
      8844      2921  TIP3      H2            -27.0350103985        4.1155142534       -3.0116146635  SOLV      2910            0.0000000000
      8845      2922  TIP3      OH2           -26.5759203985        6.4790842534       -4.9238846635  SOLV      2911            0.0000000000
      8846      2922  TIP3      H1            -26.8574203985        7.1885442534       -5.5015046635  SOLV      2911            0.0000000000
      8847      2922  TIP3      H2            -25.6334903985        6.4063842534       -5.0747646635  SOLV      2911            0.0000000000
      8848      2923  TIP3      OH2           -35.8240403985        3.2645342534       -3.8503846635  SOLV      2912            0.0000000000
      8849      2923  TIP3      H1            -36.5911403985        2.7320142534       -4.0606246635  SOLV      2912            0.0000000000
      8850      2923  TIP3      H2            -35.1451403985        2.9545742534       -4.4497546635  SOLV      2912            0.0000000000
      8851      2924  TIP3      OH2           -33.0845503985       -2.1076657466       -7.8378446635  SOLV      2913            0.0000000000
      8852      2924  TIP3      H1            -33.1825903985       -1.1613457466       -7.9432246635  SOLV      2913            0.0000000000
      8853      2924  TIP3      H2            -33.8269303985       -2.4802857466       -8.3134946635  SOLV      2913            0.0000000000
      8854      2925  TIP3      OH2           -31.8205003985        2.2138742534       -4.2740046635  SOLV      2914            0.0000000000
      8855      2925  TIP3      H1            -32.0559603985        1.9945442534       -3.3725146635  SOLV      2914            0.0000000000
      8856      2925  TIP3      H2            -32.6038103985        2.0069942534       -4.7837546635  SOLV      2914            0.0000000000
      8857      2926  TIP3      OH2           -29.1048403985        1.3412242534       -5.1986546635  SOLV      2915            0.0000000000
      8858      2926  TIP3      H1            -30.0523003985        1.3731942534       -5.0663246635  SOLV      2915            0.0000000000
      8859      2926  TIP3      H2            -28.7921703985        0.7159342534       -4.5448346635  SOLV      2915            0.0000000000
      8860      2927  TIP3      OH2           -27.4706903985       -0.0246657466       -3.1934646635  SOLV      2916            0.0000000000
      8861      2927  TIP3      H1            -27.5675103985       -0.9769357466       -3.1992746635  SOLV      2916            0.0000000000
      8862      2927  TIP3      H2            -27.7923803985        0.2440142534       -2.3329146635  SOLV      2916            0.0000000000
      8863      2928  TIP3      OH2           -37.6437603985        1.1849142534       -4.1459146635  SOLV      2917            0.0000000000
      8864      2928  TIP3      H1            -37.4320203985        0.4785242534       -4.7561646635  SOLV      2917            0.0000000000
      8865      2928  TIP3      H2            -37.7550103985        0.7475142534       -3.3017946635  SOLV      2917            0.0000000000
      8866      2929  TIP3      OH2           -32.8627403985       -2.8139257466       -5.1665646635  SOLV      2918            0.0000000000
      8867      2929  TIP3      H1            -32.1509003985       -3.4537057466       -5.1806546635  SOLV      2918            0.0000000000
      8868      2929  TIP3      H2            -32.9637003985       -2.5470957466       -6.0802546635  SOLV      2918            0.0000000000
      8869      2930  TIP3      OH2           -32.5089903985       -1.1310857466       -3.1129346635  SOLV      2919            0.0000000000
      8870      2930  TIP3      H1            -32.6407703985       -1.6067057466       -3.9330846635  SOLV      2919            0.0000000000
      8871      2930  TIP3      H2            -33.1082503985       -0.3867257466       -3.1682246635  SOLV      2919            0.0000000000
      8872      2931  TIP3      OH2           -32.9627603985       15.7519442534      -19.9365346635  SOLV      2920            0.0000000000
      8873      2931  TIP3      H1            -32.0296903985       15.9098142534      -19.7926946635  SOLV      2920            0.0000000000
      8874      2931  TIP3      H2            -33.2268803985       16.4272442534      -20.5613846635  SOLV      2920            0.0000000000
      8875      2932  TIP3      OH2           -22.3268103985       14.6715142534      -10.5912346635  SOLV      2921            0.0000000000
      8876      2932  TIP3      H1            -22.3481403985       14.8563542534       -9.6522946635  SOLV      2921            0.0000000000
      8877      2932  TIP3      H2            -21.6361903985       15.2399142534      -10.9320946635  SOLV      2921            0.0000000000
      8878      2933  TIP3      OH2           -22.7635203985       14.2386242534       -7.6693246635  SOLV      2922            0.0000000000
      8879      2933  TIP3      H1            -23.2506503985       13.5030342534       -8.0405846635  SOLV      2922            0.0000000000
      8880      2933  TIP3      H2            -22.2142503985       13.8450142534       -6.9913846635  SOLV      2922            0.0000000000
      8881      2934  TIP3      OH2           -24.3127903985       10.0284342534       -3.0312946635  SOLV      2923            0.0000000000
      8882      2934  TIP3      H1            -25.1786803985        9.9234042534       -2.6370646635  SOLV      2923            0.0000000000
      8883      2934  TIP3      H2            -23.9362003985       10.7867642534       -2.5848246635  SOLV      2923            0.0000000000
      8884      2935  TIP3      OH2           -23.0118203985        8.2848042534      -17.5170446635  SOLV      2924            0.0000000000
      8885      2935  TIP3      H1            -22.1616803985        8.7058942534      -17.3898846635  SOLV      2924            0.0000000000
      8886      2935  TIP3      H2            -23.0063103985        7.5448142534      -16.9099046635  SOLV      2924            0.0000000000
      8887      2936  TIP3      OH2           -22.6172603985        6.3385442534      -15.6934746635  SOLV      2925            0.0000000000
      8888      2936  TIP3      H1            -23.3438003985        5.8588042534      -15.2957146635  SOLV      2925            0.0000000000
      8889      2936  TIP3      H2            -22.0359303985        6.5440142534      -14.9613146635  SOLV      2925            0.0000000000
      8890      2937  TIP3      OH2           -22.8581403985        9.1232942534      -10.7457146635  SOLV      2926            0.0000000000
      8891      2937  TIP3      H1            -22.0247203985        8.7452942534      -11.0263546635  SOLV      2926            0.0000000000
      8892      2937  TIP3      H2            -22.7461103985       10.0664142534      -10.8648046635  SOLV      2926            0.0000000000
      8893      2938  TIP3      OH2           -24.3719103985       12.0010442534       -8.4388746635  SOLV      2927            0.0000000000
      8894      2938  TIP3      H1            -25.0193803985       12.3261942534       -7.8133546635  SOLV      2927            0.0000000000
      8895      2938  TIP3      H2            -24.8895103985       11.5608142534       -9.1130446635  SOLV      2927            0.0000000000
      8896      2939  TIP3      OH2           -22.3489503985        6.2393942534      -19.3023446635  SOLV      2928            0.0000000000
      8897      2939  TIP3      H1            -22.8708403985        6.5958042534      -20.0212546635  SOLV      2928            0.0000000000
      8898      2939  TIP3      H2            -22.3820303985        6.9141742534      -18.6242546635  SOLV      2928            0.0000000000
      8899      2940  TIP3      OH2           -24.0000503985        3.4789542534      -20.7516346635  SOLV      2929            0.0000000000
      8900      2940  TIP3      H1            -23.9036103985        4.1456542534      -21.4316646635  SOLV      2929            0.0000000000
      8901      2940  TIP3      H2            -24.1400903985        2.6635842534      -21.2330846635  SOLV      2929            0.0000000000
      8902      2941  TIP3      OH2           -23.9742903985        6.8295242534       -5.4917746635  SOLV      2930            0.0000000000
      8903      2941  TIP3      H1            -23.3915603985        6.0947542534       -5.3000546635  SOLV      2930            0.0000000000
      8904      2941  TIP3      H2            -23.4103603985        7.6015542534       -5.4451946635  SOLV      2930            0.0000000000
      8905      2942  TIP3      OH2           -22.4775803985        4.7321042534       -4.8072346635  SOLV      2931            0.0000000000
      8906      2942  TIP3      H1            -23.3409103985        4.3533142534       -4.9727646635  SOLV      2931            0.0000000000
      8907      2942  TIP3      H2            -21.8732103985        3.9935842534       -4.8816546635  SOLV      2931            0.0000000000
      8908      2943  TIP3      OH2           -24.7526703985        0.8869342534      -21.6340846635  SOLV      2932            0.0000000000
      8909      2943  TIP3      H1            -24.1420903985        0.5156142534      -20.9972646635  SOLV      2932            0.0000000000
      8910      2943  TIP3      H2            -25.5895203985        0.4656242534      -21.4380846635  SOLV      2932            0.0000000000
      8911      2944  TIP3      OH2           -25.1201003985        2.4417742534      -16.6680946635  SOLV      2933            0.0000000000
      8912      2944  TIP3      H1            -24.8403903985        1.5348142534      -16.5439246635  SOLV      2933            0.0000000000
      8913      2944  TIP3      H2            -24.3609303985        2.8759242534      -17.0571746635  SOLV      2933            0.0000000000
      8914      2945  TIP3      OH2           -24.5082703985        3.0235142534      -11.2322046635  SOLV      2934            0.0000000000
      8915      2945  TIP3      H1            -23.5754703985        3.2355042534      -11.2666046635  SOLV      2934            0.0000000000
      8916      2945  TIP3      H2            -24.7435203985        3.1247242534      -10.3099046635  SOLV      2934            0.0000000000
      8917      2946  TIP3      OH2           -24.4790803985        3.7600442534       -8.4562646635  SOLV      2935            0.0000000000
      8918      2946  TIP3      H1            -25.3219503985        4.0280842534       -8.0902846635  SOLV      2935            0.0000000000
      8919      2946  TIP3      H2            -24.0366503985        4.5822342534       -8.6671546635  SOLV      2935            0.0000000000
      8920      2947  TIP3      OH2           -22.1959203985       -2.2599357466       -3.1027646635  SOLV      2936            0.0000000000
      8921      2947  TIP3      H1            -21.8462203985       -2.9135857466       -3.7082946635  SOLV      2936            0.0000000000
      8922      2947  TIP3      H2            -22.0489703985       -1.4225257466       -3.5425046635  SOLV      2936            0.0000000000
      8923      2948  TIP3      OH2           -24.5066203985       -0.2952957466      -16.6198946635  SOLV      2937            0.0000000000
      8924      2948  TIP3      H1            -24.3241203985       -0.7441457466      -15.7943946635  SOLV      2937            0.0000000000
      8925      2948  TIP3      H2            -25.1063303985       -0.8798557466      -17.0834346635  SOLV      2937            0.0000000000
      8926      2949  TIP3      OH2           -38.9766103985        0.5200742534      -12.0880546635  SOLV      2938            0.0000000000
      8927      2949  TIP3      H1            -38.5314503985       -0.2716757466      -11.7860846635  SOLV      2938            0.0000000000
      8928      2949  TIP3      H2            -38.5103103985        1.2365942534      -11.6574946635  SOLV      2938            0.0000000000
      8929      2950  TIP3      OH2           -22.6762003985       -0.1504757466       -4.7536346635  SOLV      2939            0.0000000000
      8930      2950  TIP3      H1            -23.5936303985        0.1202342534       -4.7892846635  SOLV      2939            0.0000000000
      8931      2950  TIP3      H2            -22.5532603985       -0.6856357466       -5.5376646635  SOLV      2939            0.0000000000
      8932      2951  TIP3      OH2           -22.6400003985       -0.2274857466      -20.0918646635  SOLV      2940            0.0000000000
      8933      2951  TIP3      H1            -22.2277403985       -0.9489157466      -20.5670646635  SOLV      2940            0.0000000000
      8934      2951  TIP3      H2            -21.9583503985        0.4419742534      -20.0334346635  SOLV      2940            0.0000000000
      8935      2952  TIP3      OH2           -25.5882103985       14.7614542534      -15.0190546635  SOLV      2941            0.0000000000
      8936      2952  TIP3      H1            -24.9359203985       14.4136642534      -15.6271446635  SOLV      2941            0.0000000000
      8937      2952  TIP3      H2            -25.0778303985       15.2497742534      -14.3730846635  SOLV      2941            0.0000000000
      8938      2953  TIP3      OH2           -30.9380303985       14.0637142534       -5.2581946635  SOLV      2942            0.0000000000
      8939      2953  TIP3      H1            -30.7532803985       13.7303242534       -4.3801646635  SOLV      2942            0.0000000000
      8940      2953  TIP3      H2            -30.0915803985       14.3735742534       -5.5802746635  SOLV      2942            0.0000000000
      8941      2954  TIP3      OH2           -28.5929903985       15.3496042534       -6.0140546635  SOLV      2943            0.0000000000
      8942      2954  TIP3      H1            -27.9161003985       14.7168342534       -6.2541346635  SOLV      2943            0.0000000000
      8943      2954  TIP3      H2            -28.2711103985       15.7506542534       -5.2067246635  SOLV      2943            0.0000000000
      8944      2955  TIP3      OH2           -23.6756103985       -2.0608457466       -6.9345546635  SOLV      2944            0.0000000000
      8945      2955  TIP3      H1            -24.4882603985       -1.7358157466       -7.3220846635  SOLV      2944            0.0000000000
      8946      2955  TIP3      H2            -23.4427603985       -2.8209957466       -7.4676446635  SOLV      2944            0.0000000000
      8947      2956  TIP3      OH2           -30.6696803985       15.4093842534       -9.9647146635  SOLV      2945            0.0000000000
      8948      2956  TIP3      H1            -31.1262803985       15.9383542534      -10.6188746635  SOLV      2945            0.0000000000
      8949      2956  TIP3      H2            -30.5068803985       16.0125242534       -9.2394846635  SOLV      2945            0.0000000000
      8950      2957  TIP3      OH2           -28.3420503985       14.2873442534       -9.0196846635  SOLV      2946            0.0000000000
      8951      2957  TIP3      H1            -29.2466803985       14.4523642534       -9.2854746635  SOLV      2946            0.0000000000
      8952      2957  TIP3      H2            -27.9131903985       15.1405642534       -9.0853446635  SOLV      2946            0.0000000000
      8953      2958  TIP3      OH2           -25.7378603985       15.8572542534       -8.7249046635  SOLV      2947            0.0000000000
      8954      2958  TIP3      H1            -25.9196603985       16.7731442534       -8.9354146635  SOLV      2947            0.0000000000
      8955      2958  TIP3      H2            -25.5610803985       15.4469642534       -9.5714446635  SOLV      2947            0.0000000000
      8956      2959  TIP3      OH2           -33.7541303985       13.7241542534      -11.7560646635  SOLV      2948            0.0000000000
      8957      2959  TIP3      H1            -33.5415603985       12.8360542534      -12.0429746635  SOLV      2948            0.0000000000
      8958      2959  TIP3      H2            -33.6896203985       13.6899242534      -10.8016646635  SOLV      2948            0.0000000000
      8959      2960  TIP3      OH2           -30.2457603985       -0.6117857466      -12.6117346635  SOLV      2949            0.0000000000
      8960      2960  TIP3      H1            -30.9200803985       -1.2412257466      -12.3561546635  SOLV      2949            0.0000000000
      8961      2960  TIP3      H2            -29.6818403985       -1.0958957466      -13.2149446635  SOLV      2949            0.0000000000
      8962      2961  TIP3      OH2           -25.1030403985       -2.5043857466      -12.4990246635  SOLV      2950            0.0000000000
      8963      2961  TIP3      H1            -24.4992803985       -1.9568457466      -13.0009246635  SOLV      2950            0.0000000000
      8964      2961  TIP3      H2            -25.9728403985       -2.1853457466      -12.7396146635  SOLV      2950            0.0000000000
      8965      2962  TIP3      OH2           -23.3760003985       -1.3655157466      -14.1659346635  SOLV      2951            0.0000000000
      8966      2962  TIP3      H1            -22.7642503985       -1.8799457466      -14.6925746635  SOLV      2951            0.0000000000
      8967      2962  TIP3      H2            -22.9936603985       -0.4883057466      -14.1424946635  SOLV      2951            0.0000000000
      8968      2963  TIP3      OH2           -37.9190103985       -1.9777557466      -14.7897446635  SOLV      2952            0.0000000000
      8969      2963  TIP3      H1            -38.6960303985       -2.2122657466      -15.2971546635  SOLV      2952            0.0000000000
      8970      2963  TIP3      H2            -37.3886503985       -2.7745457466      -14.7809446635  SOLV      2952            0.0000000000
      8971      2964  TIP3      OH2           -39.0826703985       -2.1799457466      -18.9861346635  SOLV      2953            0.0000000000
      8972      2964  TIP3      H1            -38.6436003985       -1.5688957466      -19.5777846635  SOLV      2953            0.0000000000
      8973      2964  TIP3      H2            -39.7164303985       -1.6415357466      -18.5121346635  SOLV      2953            0.0000000000
      8974      2965  TIP3      OH2           -33.3397503985       -2.0510457466      -14.9764346635  SOLV      2954            0.0000000000
      8975      2965  TIP3      H1            -32.4654103985       -1.6626157466      -15.0060046635  SOLV      2954            0.0000000000
      8976      2965  TIP3      H2            -33.4756703985       -2.2662657466      -14.0537146635  SOLV      2954            0.0000000000
      8977      2966  TIP3      OH2           -27.7829103985       -2.0210657466      -13.3272646635  SOLV      2955            0.0000000000
      8978      2966  TIP3      H1            -27.7067503985       -1.9259057466      -14.2766646635  SOLV      2955            0.0000000000
      8979      2966  TIP3      H2            -28.0579903985       -2.9287757466      -13.1983546635  SOLV      2955            0.0000000000
      8980      2967  TIP3      OH2           -26.4296503985       -1.9952857466      -17.6347646635  SOLV      2956            0.0000000000
      8981      2967  TIP3      H1            -27.1325403985       -1.3803657466      -17.8446246635  SOLV      2956            0.0000000000
      8982      2967  TIP3      H2            -26.8745103985       -2.8326157466      -17.5036746635  SOLV      2956            0.0000000000
      8983      2968  TIP3      OH2           -37.2217603985       -0.2637957466      -20.5437246635  SOLV      2957            0.0000000000
      8984      2968  TIP3      H1            -36.7304203985       -0.8935557466      -21.0711746635  SOLV      2957            0.0000000000
      8985      2968  TIP3      H2            -36.5981303985        0.0321442534      -19.8806046635  SOLV      2957            0.0000000000
      8986      2969  TIP3      OH2           -32.1957503985        0.0293542534      -18.0866746635  SOLV      2958            0.0000000000
      8987      2969  TIP3      H1            -32.0176203985       -0.6173257466      -17.4038146635  SOLV      2958            0.0000000000
      8988      2969  TIP3      H2            -32.2491303985        0.8631242534      -17.6195646635  SOLV      2958            0.0000000000
      8989      2970  TIP3      OH2           -30.3173703985       14.9777642534      -19.6910046635  SOLV      2959            0.0000000000
      8990      2970  TIP3      H1            -29.4513503985       15.3445042534      -19.8691846635  SOLV      2959            0.0000000000
      8991      2970  TIP3      H2            -30.5640903985       14.5385642534      -20.5049246635  SOLV      2959            0.0000000000
      8992      2971  TIP3      OH2           -23.6084103985       14.5407942534      -17.0118946635  SOLV      2960            0.0000000000
      8993      2971  TIP3      H1            -23.8027003985       13.7930042534      -17.5769346635  SOLV      2960            0.0000000000
      8994      2971  TIP3      H2            -23.6474003985       15.2988042534      -17.5951046635  SOLV      2960            0.0000000000
      8995      2972  TIP3      OH2           -37.9612103985       -1.4635657466       -5.2721246635  SOLV      2961            0.0000000000
      8996      2972  TIP3      H1            -38.3273903985       -2.2293057466       -4.8296546635  SOLV      2961            0.0000000000
      8997      2972  TIP3      H2            -37.0483603985       -1.4345457466       -4.9856146635  SOLV      2961            0.0000000000
      8998      2973  TIP3      OH2           -35.9881303985       -2.1131257466       -3.7364146635  SOLV      2962            0.0000000000
      8999      2973  TIP3      H1            -35.0897703985       -2.3871057466       -3.9210746635  SOLV      2962            0.0000000000
      9000      2973  TIP3      H2            -36.3748203985       -2.8555257466       -3.2721546635  SOLV      2962            0.0000000000
      9001      2974  TIP3      OH2           -27.5669003985       -2.7805957466       -3.5541346635  SOLV      2963            0.0000000000
      9002      2974  TIP3      H1            -27.4901803985       -3.2065257466       -2.7003646635  SOLV      2963            0.0000000000
      9003      2974  TIP3      H2            -26.6732403985       -2.7671257466       -3.8967846635  SOLV      2963            0.0000000000
      9004      2975  TIP3      OH2           -24.3907903985       13.2920342534       -4.8617146635  SOLV      2964            0.0000000000
      9005      2975  TIP3      H1            -25.1726003985       13.1058342534       -5.3816546635  SOLV      2964            0.0000000000
      9006      2975  TIP3      H2            -24.4628003985       14.2214642534       -4.6444646635  SOLV      2964            0.0000000000
      9007      2976  TIP3      OH2            -9.9847503985        7.1784742534      -14.8309946635  SOLV      2965            0.0000000000
      9008      2976  TIP3      H1             -9.8956403985        8.1222942534      -14.9632846635  SOLV      2965            0.0000000000
      9009      2976  TIP3      H2            -10.6229903985        6.9031142534      -15.4890546635  SOLV      2965            0.0000000000
      9010      2977  TIP3      OH2           -11.0516203985        6.4335442534      -11.4121746635  SOLV      2966            0.0000000000
      9011      2977  TIP3      H1            -11.0898703985        5.7871742534      -10.7072146635  SOLV      2966            0.0000000000
      9012      2977  TIP3      H2            -11.3739703985        5.9669842534      -12.1833046635  SOLV      2966            0.0000000000
      9013      2978  TIP3      OH2           -18.6831203985        6.0477542534       -9.8191846635  SOLV      2967            0.0000000000
      9014      2978  TIP3      H1            -18.6419103985        5.4220842534       -9.0959446635  SOLV      2967            0.0000000000
      9015      2978  TIP3      H2            -17.9803503985        6.6716142534       -9.6371446635  SOLV      2967            0.0000000000
      9016      2979  TIP3      OH2            -7.3456003985        9.3725842534      -13.1106646635  SOLV      2968            0.0000000000
      9017      2979  TIP3      H1             -7.7863303985        8.6521842534      -12.6601046635  SOLV      2968            0.0000000000
      9018      2979  TIP3      H2             -7.3586303985       10.0933042534      -12.4808946635  SOLV      2968            0.0000000000
      9019      2980  TIP3      OH2           -17.7598103985       10.4976442534      -11.2842746635  SOLV      2969            0.0000000000
      9020      2980  TIP3      H1            -18.1292903985        9.6956942534      -11.6538446635  SOLV      2969            0.0000000000
      9021      2980  TIP3      H2            -16.8187003985       10.3291342534      -11.2379346635  SOLV      2969            0.0000000000
      9022      2981  TIP3      OH2           -21.1497603985        4.1579042534      -15.8913946635  SOLV      2970            0.0000000000
      9023      2981  TIP3      H1            -21.5974203985        5.0037742534      -15.9097446635  SOLV      2970            0.0000000000
      9024      2981  TIP3      H2            -21.7106403985        3.5783242534      -16.4068846635  SOLV      2970            0.0000000000
      9025      2982  TIP3      OH2           -20.4391503985        6.3198642534      -13.7655946635  SOLV      2971            0.0000000000
      9026      2982  TIP3      H1            -20.2258003985        5.5500242534      -13.2382946635  SOLV      2971            0.0000000000
      9027      2982  TIP3      H2            -19.7013903985        6.4095342534      -14.3688346635  SOLV      2971            0.0000000000
      9028      2983  TIP3      OH2           -10.2340503985       14.4767542534      -12.8986246635  SOLV      2972            0.0000000000
      9029      2983  TIP3      H1             -9.6144103985       13.8002242534      -13.1717046635  SOLV      2972            0.0000000000
      9030      2983  TIP3      H2            -10.4423103985       14.2588342534      -11.9901346635  SOLV      2972            0.0000000000
      9031      2984  TIP3      OH2           -12.6621803985        8.8656842534      -11.0060746635  SOLV      2973            0.0000000000
      9032      2984  TIP3      H1            -12.3583903985        8.1798242534      -11.6006646635  SOLV      2973            0.0000000000
      9033      2984  TIP3      H2            -11.9407803985        8.9845542534      -10.3882746635  SOLV      2973            0.0000000000
      9034      2985  TIP3      OH2            -3.9992003985        0.4672142534      -10.1454546635  SOLV      2974            0.0000000000
      9035      2985  TIP3      H1             -3.9499803985        1.0773342534       -9.4095446635  SOLV      2974            0.0000000000
      9036      2985  TIP3      H2             -3.5736903985        0.9283042534      -10.8683446635  SOLV      2974            0.0000000000
      9037      2986  TIP3      OH2            -9.5214803985        3.2599242534      -10.6785946635  SOLV      2975            0.0000000000
      9038      2986  TIP3      H1             -9.3788903985        2.3136242534      -10.6584346635  SOLV      2975            0.0000000000
      9039      2986  TIP3      H2             -9.6275803985        3.4669042534      -11.6071046635  SOLV      2975            0.0000000000
      9040      2987  TIP3      OH2           -16.3666503985        1.3615642534      -13.4061146635  SOLV      2976            0.0000000000
      9041      2987  TIP3      H1            -16.3235403985        2.2214142534      -13.8244846635  SOLV      2976            0.0000000000
      9042      2987  TIP3      H2            -16.8242403985        0.8090342534      -14.0397946635  SOLV      2976            0.0000000000
      9043      2988  TIP3      OH2            -8.6443803985        1.4921242534      -15.0052846635  SOLV      2977            0.0000000000
      9044      2988  TIP3      H1             -7.9979503985        1.1634442534      -14.3805246635  SOLV      2977            0.0000000000
      9045      2988  TIP3      H2             -8.1344403985        2.0100242534      -15.6281446635  SOLV      2977            0.0000000000
      9046      2989  TIP3      OH2           -19.7465003985        3.7581442534      -12.6439746635  SOLV      2978            0.0000000000
      9047      2989  TIP3      H1            -19.0928403985        3.2083142534      -12.2119646635  SOLV      2978            0.0000000000
      9048      2989  TIP3      H2            -19.7225703985        3.4840442534      -13.5607746635  SOLV      2978            0.0000000000
      9049      2990  TIP3      OH2           -14.5900503985        5.3082742534      -13.4288246635  SOLV      2979            0.0000000000
      9050      2990  TIP3      H1            -13.9739503985        4.7818142534      -12.9194246635  SOLV      2979            0.0000000000
      9051      2990  TIP3      H2            -15.1761703985        4.6681442534      -13.8324646635  SOLV      2979            0.0000000000
      9052      2991  TIP3      OH2            -3.6077403985        1.9451342534       -7.9094746635  SOLV      2980            0.0000000000
      9053      2991  TIP3      H1             -4.2962803985        2.6032042534       -8.0048146635  SOLV      2980            0.0000000000
      9054      2991  TIP3      H2             -3.5922803985        1.7479242534       -6.9729346635  SOLV      2980            0.0000000000
      9055      2992  TIP3      OH2           -17.5564603985        0.2794042534       -9.3320346635  SOLV      2981            0.0000000000
      9056      2992  TIP3      H1            -17.7752903985        0.8094642534      -10.0984346635  SOLV      2981            0.0000000000
      9057      2992  TIP3      H2            -18.2243703985        0.5059542534       -8.6848946635  SOLV      2981            0.0000000000
      9058      2993  TIP3      OH2           -10.1874803985        9.7795142534      -15.7881246635  SOLV      2982            0.0000000000
      9059      2993  TIP3      H1            -10.4829703985        9.4567442534      -16.6394346635  SOLV      2982            0.0000000000
      9060      2993  TIP3      H2            -10.5117003985       10.6791842534      -15.7468646635  SOLV      2982            0.0000000000
      9061      2994  TIP3      OH2           -14.9873203985        7.9549742534       -9.0446646635  SOLV      2983            0.0000000000
      9062      2994  TIP3      H1            -15.7274103985        8.5531242534       -8.9411446635  SOLV      2983            0.0000000000
      9063      2994  TIP3      H2            -14.2733703985        8.5089342534       -9.3603046635  SOLV      2983            0.0000000000
      9064      2995  TIP3      OH2            -6.8805403985        0.7830542534      -13.0246946635  SOLV      2984            0.0000000000
      9065      2995  TIP3      H1             -7.0957403985        0.0173942534      -12.4920946635  SOLV      2984            0.0000000000
      9066      2995  TIP3      H2             -6.2248003985        1.2555142534      -12.5118446635  SOLV      2984            0.0000000000
      9067      2996  TIP3      OH2           -17.9627303985        2.1715842534      -11.3798146635  SOLV      2985            0.0000000000
      9068      2996  TIP3      H1            -17.3491003985        2.8043442534      -11.0065746635  SOLV      2985            0.0000000000
      9069      2996  TIP3      H2            -17.4506603985        1.6990842534      -12.0361246635  SOLV      2985            0.0000000000
      9070      2997  TIP3      OH2           -16.5798903985        9.9192742534       -8.2575146635  SOLV      2986            0.0000000000
      9071      2997  TIP3      H1            -16.5851303985       10.7986242534       -8.6355846635  SOLV      2986            0.0000000000
      9072      2997  TIP3      H2            -17.4334803985        9.8356842534       -7.8325246635  SOLV      2986            0.0000000000
      9073      2998  TIP3      OH2           -20.4588003985        9.5900642534      -17.4755846635  SOLV      2987            0.0000000000
      9074      2998  TIP3      H1            -20.7307103985        9.8191642534      -18.3642946635  SOLV      2987            0.0000000000
      9075      2998  TIP3      H2            -20.4132303985       10.4279442534      -17.0150546635  SOLV      2987            0.0000000000
      9076      2999  TIP3      OH2            -6.8338303985       11.2116542534      -10.7627346635  SOLV      2988            0.0000000000
      9077      2999  TIP3      H1             -7.7754603985       11.2700442534      -10.6010446635  SOLV      2988            0.0000000000
      9078      2999  TIP3      H2             -6.5572203985       12.1177042534      -10.8997646635  SOLV      2988            0.0000000000
      9079      3000  TIP3      OH2            -6.5331303985       -0.5018157466       -9.3453446635  SOLV      2989            0.0000000000
      9080      3000  TIP3      H1             -7.2692103985        0.1088942534       -9.3832146635  SOLV      2989            0.0000000000
      9081      3000  TIP3      H2             -5.8497303985       -0.0869157466       -9.8717046635  SOLV      2989            0.0000000000
      9082      3001  TIP3      OH2           -13.5299903985       -2.4150857466      -11.8795446635  SOLV      2990            0.0000000000
      9083      3001  TIP3      H1            -13.6475703985       -3.3634857466      -11.9337146635  SOLV      2990            0.0000000000
      9084      3001  TIP3      H2            -14.3849803985       -2.0824757466      -11.6064346635  SOLV      2990            0.0000000000
      9085      3002  TIP3      OH2            -8.5817103985       12.9930042534      -14.1375746635  SOLV      2991            0.0000000000
      9086      3002  TIP3      H1             -8.1564803985       12.2857942534      -14.6226146635  SOLV      2991            0.0000000000
      9087      3002  TIP3      H2             -8.2647103985       13.7942742534      -14.5543546635  SOLV      2991            0.0000000000
      9088      3003  TIP3      OH2            -7.4220603985       10.8938542534      -15.6289146635  SOLV      2992            0.0000000000
      9089      3003  TIP3      H1             -7.6795803985       10.2038642534      -16.2403246635  SOLV      2992            0.0000000000
      9090      3003  TIP3      H2             -7.3509803985       10.4509742534      -14.7833246635  SOLV      2992            0.0000000000
      9091      3004  TIP3      OH2            -5.7360403985        9.4605242534       -7.1515646635  SOLV      2993            0.0000000000
      9092      3004  TIP3      H1             -5.5964103985        8.8687742534       -7.8908646635  SOLV      2993            0.0000000000
      9093      3004  TIP3      H2             -5.5687603985       10.3331142534       -7.5076846635  SOLV      2993            0.0000000000
      9094      3005  TIP3      OH2           -11.2635003985        6.4224742534      -17.3789646635  SOLV      2994            0.0000000000
      9095      3005  TIP3      H1            -11.9749503985        6.9574442534      -17.7309146635  SOLV      2994            0.0000000000
      9096      3005  TIP3      H2            -10.5725403985        6.4776842534      -18.0390746635  SOLV      2994            0.0000000000
      9097      3006  TIP3      OH2           -11.2095803985        4.8799042534      -20.3404646635  SOLV      2995            0.0000000000
      9098      3006  TIP3      H1            -10.5085903985        4.9025942534      -19.6890646635  SOLV      2995            0.0000000000
      9099      3006  TIP3      H2            -10.9072903985        4.2518742534      -20.9965346635  SOLV      2995            0.0000000000
      9100      3007  TIP3      OH2            -3.8941103985        5.8003242534       -9.0855246635  SOLV      2996            0.0000000000
      9101      3007  TIP3      H1             -4.5467003985        6.4948842534       -8.9964346635  SOLV      2996            0.0000000000
      9102      3007  TIP3      H2             -3.4290803985        6.0104142534       -9.8953646635  SOLV      2996            0.0000000000
      9103      3008  TIP3      OH2            -7.8577303985        6.6318042534      -16.4273746635  SOLV      2997            0.0000000000
      9104      3008  TIP3      H1             -8.5896303985        6.8601742534      -15.8543146635  SOLV      2997            0.0000000000
      9105      3008  TIP3      H2             -7.4105103985        5.9180742534      -15.9726246635  SOLV      2997            0.0000000000
      9106      3009  TIP3      OH2            -7.9603803985        4.8060642534       -7.3596746635  SOLV      2998            0.0000000000
      9107      3009  TIP3      H1             -7.8804703985        5.5695042534       -6.7878246635  SOLV      2998            0.0000000000
      9108      3009  TIP3      H2             -8.5616103985        5.0853042534       -8.0501646635  SOLV      2998            0.0000000000
      9109      3010  TIP3      OH2           -16.2123603985        7.2624242534      -14.5448746635  SOLV      2999            0.0000000000
      9110      3010  TIP3      H1            -16.5428403985        6.8917642534      -15.3631746635  SOLV      2999            0.0000000000
      9111      3010  TIP3      H2            -15.6239503985        6.5918242534      -14.1980446635  SOLV      2999            0.0000000000
      9112      3011  TIP3      OH2           -14.8456103985       10.6904842534      -11.8636546635  SOLV      3000            0.0000000000
      9113      3011  TIP3      H1            -14.9404803985       10.1117942534      -12.6201946635  SOLV      3000            0.0000000000
      9114      3011  TIP3      H2            -14.1162503985       10.3190542534      -11.3673746635  SOLV      3000            0.0000000000
      9115      3012  TIP3      OH2           -15.8458103985        6.0309842534      -10.9113746635  SOLV      3001            0.0000000000
      9116      3012  TIP3      H1            -15.2805603985        6.1524042534      -11.6742546635  SOLV      3001            0.0000000000
      9117      3012  TIP3      H2            -15.5269203985        6.6684842534      -10.2725246635  SOLV      3001            0.0000000000
      9118      3013  TIP3      OH2            -9.5365903985       11.5341742534      -10.1773246635  SOLV      3002            0.0000000000
      9119      3013  TIP3      H1             -9.7769303985       12.1964842534       -9.5294046635  SOLV      3002            0.0000000000
      9120      3013  TIP3      H2             -9.7347703985       10.6996942534       -9.7523646635  SOLV      3002            0.0000000000
      9121      3014  TIP3      OH2           -14.9657403985       10.4302542534       -6.1941846635  SOLV      3003            0.0000000000
      9122      3014  TIP3      H1            -15.2769903985       11.2125742534       -5.7388646635  SOLV      3003            0.0000000000
      9123      3014  TIP3      H2            -15.6157203985       10.2771642534       -6.8799846635  SOLV      3003            0.0000000000
      9124      3015  TIP3      OH2            -8.9867803985        5.7940942534      -18.7422546635  SOLV      3004            0.0000000000
      9125      3015  TIP3      H1             -8.4072303985        5.9441242534      -17.9953646635  SOLV      3004            0.0000000000
      9126      3015  TIP3      H2             -8.5727803985        6.2648342534      -19.4656146635  SOLV      3004            0.0000000000
      9127      3016  TIP3      OH2           -18.0457503985        6.6283642534       -6.9656146635  SOLV      3005            0.0000000000
      9128      3016  TIP3      H1            -17.9754303985        7.2790442534       -6.2671146635  SOLV      3005            0.0000000000
      9129      3016  TIP3      H2            -18.9365303985        6.7311142534       -7.3005246635  SOLV      3005            0.0000000000
      9130      3017  TIP3      OH2           -11.2602903985       12.5309442534      -15.3069446635  SOLV      3006            0.0000000000
      9131      3017  TIP3      H1            -10.7865303985       12.8265742534      -14.5295246635  SOLV      3006            0.0000000000
      9132      3017  TIP3      H2            -11.8233603985       13.2691042534      -15.5399846635  SOLV      3006            0.0000000000
      9133      3018  TIP3      OH2           -16.7261503985       12.5017542534       -5.4308046635  SOLV      3007            0.0000000000
      9134      3018  TIP3      H1            -16.7186203985       12.3657242534       -6.3782546635  SOLV      3007            0.0000000000
      9135      3018  TIP3      H2            -17.6421103985       12.3845642534       -5.1788046635  SOLV      3007            0.0000000000
      9136      3019  TIP3      OH2            -5.2879403985       -2.4558657466      -18.9292846635  SOLV      3008            0.0000000000
      9137      3019  TIP3      H1             -6.1878703985       -2.3169657466      -18.6342246635  SOLV      3008            0.0000000000
      9138      3019  TIP3      H2             -5.0361003985       -1.6244057466      -19.3311146635  SOLV      3008            0.0000000000
      9139      3020  TIP3      OH2           -17.2220903985        6.3318542534      -16.9555946635  SOLV      3009            0.0000000000
      9140      3020  TIP3      H1            -17.5139603985        7.1000242534      -17.4464646635  SOLV      3009            0.0000000000
      9141      3020  TIP3      H2            -17.8965703985        5.6724742534      -17.1184546635  SOLV      3009            0.0000000000
      9142      3021  TIP3      OH2            -4.0988003985       11.9103742534      -20.5528946635  SOLV      3010            0.0000000000
      9143      3021  TIP3      H1             -4.0254503985       12.8493942534      -20.3823646635  SOLV      3010            0.0000000000
      9144      3021  TIP3      H2             -3.1932903985       11.6052342534      -20.6091646635  SOLV      3010            0.0000000000
      9145      3022  TIP3      OH2           -21.1290803985        8.6947742534       -8.1406146635  SOLV      3011            0.0000000000
      9146      3022  TIP3      H1            -21.6302403985        8.6667142534       -8.9556446635  SOLV      3011            0.0000000000
      9147      3022  TIP3      H2            -21.1237103985        7.7890942534       -7.8308846635  SOLV      3011            0.0000000000
      9148      3023  TIP3      OH2           -21.3788103985       11.4751542534      -11.2565946635  SOLV      3012            0.0000000000
      9149      3023  TIP3      H1            -20.4327503985       11.3308542534      -11.2756446635  SOLV      3012            0.0000000000
      9150      3023  TIP3      H2            -21.4911803985       12.2594342534      -10.7194746635  SOLV      3012            0.0000000000
      9151      3024  TIP3      OH2            -3.1809603985       12.1411242534       -5.5742246635  SOLV      3013            0.0000000000
      9152      3024  TIP3      H1             -3.2302803985       11.1859342534       -5.6114646635  SOLV      3013            0.0000000000
      9153      3024  TIP3      H2             -4.0077303985       12.4086542534       -5.1728446635  SOLV      3013            0.0000000000
      9154      3025  TIP3      OH2           -12.2025603985       11.7150442534       -6.6980846635  SOLV      3014            0.0000000000
      9155      3025  TIP3      H1            -12.1151003985       12.5415042534       -6.2231746635  SOLV      3014            0.0000000000
      9156      3025  TIP3      H2            -13.0660503985       11.3854242534       -6.4491546635  SOLV      3014            0.0000000000
      9157      3026  TIP3      OH2           -11.7879803985       15.4874142534      -16.8920246635  SOLV      3015            0.0000000000
      9158      3026  TIP3      H1            -11.8633803985       15.3661342534      -17.8385046635  SOLV      3015            0.0000000000
      9159      3026  TIP3      H2            -11.7551103985       16.4366842534      -16.7735646635  SOLV      3015            0.0000000000
      9160      3027  TIP3      OH2           -18.1346003985       14.2761142534      -15.1111246635  SOLV      3016            0.0000000000
      9161      3027  TIP3      H1            -17.9825603985       13.9281542534      -14.2324746635  SOLV      3016            0.0000000000
      9162      3027  TIP3      H2            -18.9855603985       13.9198442534      -15.3664046635  SOLV      3016            0.0000000000
      9163      3028  TIP3      OH2            -8.6863803985       14.6414342534      -19.8897846635  SOLV      3017            0.0000000000
      9164      3028  TIP3      H1             -8.3115403985       13.8970442534      -20.3605246635  SOLV      3017            0.0000000000
      9165      3028  TIP3      H2             -8.6820103985       14.3714942534      -18.9714546635  SOLV      3017            0.0000000000
      9166      3029  TIP3      OH2            -9.0175703985       14.5671442534      -17.1405646635  SOLV      3018            0.0000000000
      9167      3029  TIP3      H1             -9.9525903985       14.6673342534      -16.9618646635  SOLV      3018            0.0000000000
      9168      3029  TIP3      H2             -8.7373803985       13.8577442534      -16.5622446635  SOLV      3018            0.0000000000
      9169      3030  TIP3      OH2            -6.0289803985        3.6343742534       -5.0940046635  SOLV      3019            0.0000000000
      9170      3030  TIP3      H1             -6.4363003985        4.1149342534       -5.8146746635  SOLV      3019            0.0000000000
      9171      3030  TIP3      H2             -5.9884103985        2.7289742534       -5.4019246635  SOLV      3019            0.0000000000
      9172      3031  TIP3      OH2           -18.8800303985       10.0183142534       -7.0973346635  SOLV      3020            0.0000000000
      9173      3031  TIP3      H1            -18.6639003985        9.6568742534       -6.2377546635  SOLV      3020            0.0000000000
      9174      3031  TIP3      H2            -19.7355603985        9.6436942534       -7.3069846635  SOLV      3020            0.0000000000
      9175      3032  TIP3      OH2           -16.2612303985       -1.5116357466      -11.1019146635  SOLV      3021            0.0000000000
      9176      3032  TIP3      H1            -17.1228603985       -1.5988157466      -11.5096246635  SOLV      3021            0.0000000000
      9177      3032  TIP3      H2            -16.2836603985       -0.6556257466      -10.6741546635  SOLV      3021            0.0000000000
      9178      3033  TIP3      OH2           -11.5984503985       -1.7895957466       -7.7272146635  SOLV      3022            0.0000000000
      9179      3033  TIP3      H1            -11.1781403985       -2.2048857466       -6.9741546635  SOLV      3022            0.0000000000
      9180      3033  TIP3      H2            -12.5314903985       -1.9682657466       -7.6100146635  SOLV      3022            0.0000000000
      9181      3034  TIP3      OH2            -8.2719603985        1.9659242534       -6.8737646635  SOLV      3023            0.0000000000
      9182      3034  TIP3      H1             -8.7860103985        1.8401442534       -6.0761646635  SOLV      3023            0.0000000000
      9183      3034  TIP3      H2             -8.4274903985        2.8782342534       -7.1181446635  SOLV      3023            0.0000000000
      9184      3035  TIP3      OH2           -11.9367203985        0.7027442534      -20.4421346635  SOLV      3024            0.0000000000
      9185      3035  TIP3      H1            -12.1902403985        0.7219042534      -19.5193246635  SOLV      3024            0.0000000000
      9186      3035  TIP3      H2            -12.1935103985       -0.1687157466      -20.7435146635  SOLV      3024            0.0000000000
      9187      3036  TIP3      OH2           -16.1702203985        3.4538142534      -10.0068946635  SOLV      3025            0.0000000000
      9188      3036  TIP3      H1            -16.8120103985        3.4135442534       -9.2978846635  SOLV      3025            0.0000000000
      9189      3036  TIP3      H2            -16.1330203985        4.3802842534      -10.2445946635  SOLV      3025            0.0000000000
      9190      3037  TIP3      OH2           -16.1733103985        3.6748242534      -15.0948946635  SOLV      3026            0.0000000000
      9191      3037  TIP3      H1            -17.0660203985        3.3344342534      -15.1535146635  SOLV      3026            0.0000000000
      9192      3037  TIP3      H2            -15.7226503985        3.2979142534      -15.8505746635  SOLV      3026            0.0000000000
      9193      3038  TIP3      OH2           -10.6377603985        4.0908542534      -16.2778146635  SOLV      3027            0.0000000000
      9194      3038  TIP3      H1            -11.0467303985        4.9057142534      -16.5693346635  SOLV      3027            0.0000000000
      9195      3038  TIP3      H2             -9.9171403985        3.9508642534      -16.8921046635  SOLV      3027            0.0000000000
      9196      3039  TIP3      OH2           -11.5356003985        4.2664942534       -4.7897446635  SOLV      3028            0.0000000000
      9197      3039  TIP3      H1            -12.0982203985        3.5616542534       -4.4689646635  SOLV      3028            0.0000000000
      9198      3039  TIP3      H2            -10.7092603985        4.1456842534       -4.3219846635  SOLV      3028            0.0000000000
      9199      3040  TIP3      OH2            -9.6329903985        3.5368942534      -13.4638446635  SOLV      3029            0.0000000000
      9200      3040  TIP3      H1             -9.8285403985        4.1425742534      -14.1787846635  SOLV      3029            0.0000000000
      9201      3040  TIP3      H2             -9.4517303985        2.7034142534      -13.8982146635  SOLV      3029            0.0000000000
      9202      3041  TIP3      OH2           -18.4201703985        3.7741642534       -8.1396946635  SOLV      3030            0.0000000000
      9203      3041  TIP3      H1            -18.4582303985        4.1743242534       -7.2709846635  SOLV      3030            0.0000000000
      9204      3041  TIP3      H2            -18.9110603985        2.9574042534       -8.0494046635  SOLV      3030            0.0000000000
      9205      3042  TIP3      OH2           -15.0544303985        1.1483942534      -21.3410946635  SOLV      3031            0.0000000000
      9206      3042  TIP3      H1            -15.4853603985        0.7034042534      -20.6113546635  SOLV      3031            0.0000000000
      9207      3042  TIP3      H2            -15.7725603985        1.5200242534      -21.8533446635  SOLV      3031            0.0000000000
      9208      3043  TIP3      OH2           -21.8120903985        0.8903442534      -14.2892246635  SOLV      3032            0.0000000000
      9209      3043  TIP3      H1            -21.1813203985        0.8615542534      -13.5698346635  SOLV      3032            0.0000000000
      9210      3043  TIP3      H2            -21.3626603985        0.4652142534      -15.0196346635  SOLV      3032            0.0000000000
      9211      3044  TIP3      OH2           -20.5378803985        1.6365442534      -18.8651846635  SOLV      3033            0.0000000000
      9212      3044  TIP3      H1            -20.0637103985        2.2275342534      -19.4500946635  SOLV      3033            0.0000000000
      9213      3044  TIP3      H2            -21.2552403985        2.1668342534      -18.5181746635  SOLV      3033            0.0000000000
      9214      3045  TIP3      OH2           -10.3690703985        5.1750242534       -8.7926046635  SOLV      3034            0.0000000000
      9215      3045  TIP3      H1            -10.0455903985        4.5439942534       -9.4355546635  SOLV      3034            0.0000000000
      9216      3045  TIP3      H2            -10.8091403985        4.6402442534       -8.1318646635  SOLV      3034            0.0000000000
      9217      3046  TIP3      OH2           -13.5917803985        1.1025742534      -14.0084846635  SOLV      3035            0.0000000000
      9218      3046  TIP3      H1            -14.5026703985        1.1592542534      -13.7198846635  SOLV      3035            0.0000000000
      9219      3046  TIP3      H2            -13.0864903985        1.0421242534      -13.1977646635  SOLV      3035            0.0000000000
      9220      3047  TIP3      OH2           -18.7634403985        2.7312042534      -15.1817246635  SOLV      3036            0.0000000000
      9221      3047  TIP3      H1            -19.6526403985        2.8307542534      -15.5217646635  SOLV      3036            0.0000000000
      9222      3047  TIP3      H2            -18.4669503985        1.8895042534      -15.5279346635  SOLV      3036            0.0000000000
      9223      3048  TIP3      OH2           -15.1102603985        2.7314642534      -17.5252646635  SOLV      3037            0.0000000000
      9224      3048  TIP3      H1            -14.1787103985        2.8604642534      -17.3469546635  SOLV      3037            0.0000000000
      9225      3048  TIP3      H2            -15.3252303985        3.4008942534      -18.1747946635  SOLV      3037            0.0000000000
      9226      3049  TIP3      OH2            -9.1865903985        0.3372042534      -10.7443046635  SOLV      3038            0.0000000000
      9227      3049  TIP3      H1             -9.8634303985        0.4685142534      -10.0803346635  SOLV      3038            0.0000000000
      9228      3049  TIP3      H2             -9.6721003985        0.1821542534      -11.5545346635  SOLV      3038            0.0000000000
      9229      3050  TIP3      OH2           -16.4362403985        3.9256842534      -19.9586546635  SOLV      3039            0.0000000000
      9230      3050  TIP3      H1            -16.9787303985        3.5460642534      -20.6498946635  SOLV      3039            0.0000000000
      9231      3050  TIP3      H2            -15.6027503985        4.1201542534      -20.3872446635  SOLV      3039            0.0000000000
      9232      3051  TIP3      OH2            -5.8990803985       16.0087442534       -4.4675446635  SOLV      3040            0.0000000000
      9233      3051  TIP3      H1             -5.6992103985       16.4329342534       -5.3020146635  SOLV      3040            0.0000000000
      9234      3051  TIP3      H2             -5.2437103985       16.3525642534       -3.8605046635  SOLV      3040            0.0000000000
      9235      3052  TIP3      OH2           -18.3011003985        8.4828742534       -4.8594946635  SOLV      3041            0.0000000000
      9236      3052  TIP3      H1            -17.5688603985        8.7374642534       -4.2980446635  SOLV      3041            0.0000000000
      9237      3052  TIP3      H2            -19.0812303985        8.6874142534       -4.3439546635  SOLV      3041            0.0000000000
      9238      3053  TIP3      OH2           -12.2718103985        3.8898742534      -12.1215246635  SOLV      3042            0.0000000000
      9239      3053  TIP3      H1            -11.7074703985        3.3435342534      -12.6685646635  SOLV      3042            0.0000000000
      9240      3053  TIP3      H2            -12.4194703985        3.3680642534      -11.3327646635  SOLV      3042            0.0000000000
      9241      3054  TIP3      OH2           -17.2698403985        0.0264842534      -15.7030446635  SOLV      3043            0.0000000000
      9242      3054  TIP3      H1            -17.5868903985       -0.8759857466      -15.7385046635  SOLV      3043            0.0000000000
      9243      3054  TIP3      H2            -16.4884303985        0.0282242534      -16.2558846635  SOLV      3043            0.0000000000
      9244      3055  TIP3      OH2           -13.6452203985        2.2784842534       -9.7074846635  SOLV      3044            0.0000000000
      9245      3055  TIP3      H1            -14.4806903985        2.7324342534       -9.5972446635  SOLV      3044            0.0000000000
      9246      3055  TIP3      H2            -13.1211603985        2.5543342534       -8.9554946635  SOLV      3044            0.0000000000
      9247      3056  TIP3      OH2           -13.1009603985        8.4912542534      -18.0228446635  SOLV      3045            0.0000000000
      9248      3056  TIP3      H1            -13.8458603985        7.9837842534      -18.3450546635  SOLV      3045            0.0000000000
      9249      3056  TIP3      H2            -13.2352403985        8.5400542534      -17.0763646635  SOLV      3045            0.0000000000
      9250      3057  TIP3      OH2            -5.9510703985        7.6240742534       -9.2360846635  SOLV      3046            0.0000000000
      9251      3057  TIP3      H1             -5.3091903985        8.0807042534       -9.7798646635  SOLV      3046            0.0000000000
      9252      3057  TIP3      H2             -6.7813803985        7.7373142534       -9.6986746635  SOLV      3046            0.0000000000
      9253      3058  TIP3      OH2            -9.2032803985        1.3052442534      -19.8235846635  SOLV      3047            0.0000000000
      9254      3058  TIP3      H1            -10.1418603985        1.4168042534      -19.9747046635  SOLV      3047            0.0000000000
      9255      3058  TIP3      H2             -8.9060703985        2.1619342534      -19.5170146635  SOLV      3047            0.0000000000
      9256      3059  TIP3      OH2           -11.5817503985        8.6755842534       -6.7859346635  SOLV      3048            0.0000000000
      9257      3059  TIP3      H1            -11.9271403985        8.2938242534       -5.9789746635  SOLV      3048            0.0000000000
      9258      3059  TIP3      H2            -11.7817403985        9.6089442534       -6.7146446635  SOLV      3048            0.0000000000
      9259      3060  TIP3      OH2            -8.4849303985        3.1725142534      -18.1628446635  SOLV      3049            0.0000000000
      9260      3060  TIP3      H1             -7.5930303985        3.0350142534      -17.8437246635  SOLV      3049            0.0000000000
      9261      3060  TIP3      H2             -8.4285703985        3.9631242534      -18.6994946635  SOLV      3049            0.0000000000
      9262      3061  TIP3      OH2           -17.9761303985        7.7862542534      -12.2530546635  SOLV      3050            0.0000000000
      9263      3061  TIP3      H1            -17.2314103985        7.7838242534      -12.8544046635  SOLV      3050            0.0000000000
      9264      3061  TIP3      H2            -17.8984703985        6.9626342534      -11.7715446635  SOLV      3050            0.0000000000
      9265      3062  TIP3      OH2           -10.9755503985        9.9496842534      -18.9973846635  SOLV      3051            0.0000000000
      9266      3062  TIP3      H1            -11.2707103985       10.7764742534      -18.6159046635  SOLV      3051            0.0000000000
      9267      3062  TIP3      H2            -11.6785503985        9.3303742534      -18.8012446635  SOLV      3051            0.0000000000
      9268      3063  TIP3      OH2           -20.9681603985        6.2469442534       -6.9382046635  SOLV      3052            0.0000000000
      9269      3063  TIP3      H1            -20.7453003985        5.8289042534       -6.1064546635  SOLV      3052            0.0000000000
      9270      3063  TIP3      H2            -21.5701503985        5.6344442534       -7.3609246635  SOLV      3052            0.0000000000
      9271      3064  TIP3      OH2           -13.9516703985        5.7639342534       -4.7252346635  SOLV      3053            0.0000000000
      9272      3064  TIP3      H1            -14.2475903985        5.5982342534       -5.6203246635  SOLV      3053            0.0000000000
      9273      3064  TIP3      H2            -13.0201503985        5.5439642534       -4.7358446635  SOLV      3053            0.0000000000
      9274      3065  TIP3      OH2            -9.3313903985       11.1371342534       -6.8354346635  SOLV      3054            0.0000000000
      9275      3065  TIP3      H1            -10.2319603985       11.3203942534       -7.1030446635  SOLV      3054            0.0000000000
      9276      3065  TIP3      H2             -9.2972803985       11.3960642534       -5.9145546635  SOLV      3054            0.0000000000
      9277      3066  TIP3      OH2            -3.6000603985        3.3819242534      -18.4681746635  SOLV      3055            0.0000000000
      9278      3066  TIP3      H1             -4.1544303985        2.9857242534      -19.1404246635  SOLV      3055            0.0000000000
      9279      3066  TIP3      H2             -3.4997003985        4.2924442534      -18.7458446635  SOLV      3055            0.0000000000
      9280      3067  TIP3      OH2            -3.6368603985        9.1820942534       -5.6310246635  SOLV      3056            0.0000000000
      9281      3067  TIP3      H1             -4.4880103985        9.4204742534       -5.9983846635  SOLV      3056            0.0000000000
      9282      3067  TIP3      H2             -3.0465203985        9.1654142534       -6.3843146635  SOLV      3056            0.0000000000
      9283      3068  TIP3      OH2            -5.3048903985       12.1679642534      -18.0029646635  SOLV      3057            0.0000000000
      9284      3068  TIP3      H1             -5.6777803985       11.3423442534      -17.6939046635  SOLV      3057            0.0000000000
      9285      3068  TIP3      H2             -5.0275403985       11.9849042534      -18.9006246635  SOLV      3057            0.0000000000
      9286      3069  TIP3      OH2            -8.1445003985        6.9759142534      -10.9817746635  SOLV      3058            0.0000000000
      9287      3069  TIP3      H1             -9.0728103985        6.7441042534      -11.0088446635  SOLV      3058            0.0000000000
      9288      3069  TIP3      H2             -7.6933903985        6.1988942534      -11.3118946635  SOLV      3058            0.0000000000
      9289      3070  TIP3      OH2           -15.6011903985       11.3040742534      -14.8489046635  SOLV      3059            0.0000000000
      9290      3070  TIP3      H1            -15.0739703985       12.0775142534      -15.0490246635  SOLV      3059            0.0000000000
      9291      3070  TIP3      H2            -16.4813403985       11.5289942534      -15.1505046635  SOLV      3059            0.0000000000
      9292      3071  TIP3      OH2           -19.8464203985        6.1664842534      -20.2616646635  SOLV      3060            0.0000000000
      9293      3071  TIP3      H1            -19.2304303985        6.7932042534      -19.8821846635  SOLV      3060            0.0000000000
      9294      3071  TIP3      H2            -20.7081603985        6.4824642534      -19.9900146635  SOLV      3060            0.0000000000
      9295      3072  TIP3      OH2           -14.1739603985        8.9670642534      -15.2724746635  SOLV      3061            0.0000000000
      9296      3072  TIP3      H1            -14.4149603985        9.8925042534      -15.2309446635  SOLV      3061            0.0000000000
      9297      3072  TIP3      H2            -14.9146003985        8.5081942534      -14.8760846635  SOLV      3061            0.0000000000
      9298      3073  TIP3      OH2           -13.6593003985       13.1164242534       -8.9573646635  SOLV      3062            0.0000000000
      9299      3073  TIP3      H1            -13.2968303985       13.9709842534       -9.1909246635  SOLV      3062            0.0000000000
      9300      3073  TIP3      H2            -13.1277803985       12.8245842534       -8.2167346635  SOLV      3062            0.0000000000
      9301      3074  TIP3      OH2           -15.4908803985       13.9888242534      -15.7272546635  SOLV      3063            0.0000000000
      9302      3074  TIP3      H1            -16.4408303985       14.0945642534      -15.6759246635  SOLV      3063            0.0000000000
      9303      3074  TIP3      H2            -15.1390703985       14.8095642534      -15.3825046635  SOLV      3063            0.0000000000
      9304      3075  TIP3      OH2           -10.1152203985        9.2154942534       -9.2568046635  SOLV      3064            0.0000000000
      9305      3075  TIP3      H1            -10.5410903985        8.9876642534       -8.4304046635  SOLV      3064            0.0000000000
      9306      3075  TIP3      H2             -9.5346403985        8.4766742534       -9.4392746635  SOLV      3064            0.0000000000
      9307      3076  TIP3      OH2            -7.4568003985       13.7674442534       -6.7873246635  SOLV      3065            0.0000000000
      9308      3076  TIP3      H1             -8.0584803985       13.2117342534       -7.2826946635  SOLV      3065            0.0000000000
      9309      3076  TIP3      H2             -7.1754303985       14.4344242534       -7.4135846635  SOLV      3065            0.0000000000
      9310      3077  TIP3      OH2            -3.4088903985       14.6237942534      -19.9818846635  SOLV      3066            0.0000000000
      9311      3077  TIP3      H1             -2.6651003985       15.2098442534      -20.1217246635  SOLV      3066            0.0000000000
      9312      3077  TIP3      H2             -4.1030803985       15.1923742534      -19.6486446635  SOLV      3066            0.0000000000
      9313      3078  TIP3      OH2           -19.3342103985        1.0002142534       -7.3800646635  SOLV      3067            0.0000000000
      9314      3078  TIP3      H1            -20.2269803985        1.3387542534       -7.4476646635  SOLV      3067            0.0000000000
      9315      3078  TIP3      H2            -19.4329303985        0.1448242534       -6.9619846635  SOLV      3067            0.0000000000
      9316      3079  TIP3      OH2            -7.0464003985        8.8167442534      -17.9561146635  SOLV      3068            0.0000000000
      9317      3079  TIP3      H1             -7.3236403985        8.0886742534      -17.4000046635  SOLV      3068            0.0000000000
      9318      3079  TIP3      H2             -6.1191003985        8.9359442534      -17.7508546635  SOLV      3068            0.0000000000
      9319      3080  TIP3      OH2           -19.6830103985       12.8046542534       -8.9451246635  SOLV      3069            0.0000000000
      9320      3080  TIP3      H1            -19.4659803985       11.8728942534       -8.9761546635  SOLV      3069            0.0000000000
      9321      3080  TIP3      H2            -19.4366603985       13.0791542534       -8.0618446635  SOLV      3069            0.0000000000
      9322      3081  TIP3      OH2           -13.8215503985       11.2561542534      -21.7359046635  SOLV      3070            0.0000000000
      9323      3081  TIP3      H1            -13.5825703985       10.5079642534      -22.2830146635  SOLV      3070            0.0000000000
      9324      3081  TIP3      H2            -14.0904203985       10.8683242534      -20.9031246635  SOLV      3070            0.0000000000
      9325      3082  TIP3      OH2           -14.8844903985       10.8265342534      -19.2796446635  SOLV      3071            0.0000000000
      9326      3082  TIP3      H1            -14.7376903985       10.3065142534      -18.4895546635  SOLV      3071            0.0000000000
      9327      3082  TIP3      H2            -14.8873203985       11.7332942534      -18.9730546635  SOLV      3071            0.0000000000
      9328      3083  TIP3      OH2           -18.4313803985        8.0788642534      -18.7691046635  SOLV      3072            0.0000000000
      9329      3083  TIP3      H1            -19.1174503985        8.4311142534      -18.2021346635  SOLV      3072            0.0000000000
      9330      3083  TIP3      H2            -17.9085903985        8.8418242534      -19.0156746635  SOLV      3072            0.0000000000
      9331      3084  TIP3      OH2           -10.5998703985        0.7412442534       -8.4902046635  SOLV      3073            0.0000000000
      9332      3084  TIP3      H1             -9.9010803985        0.8151142534       -7.8402346635  SOLV      3073            0.0000000000
      9333      3084  TIP3      H2            -10.9807303985       -0.1232557466       -8.3359146635  SOLV      3073            0.0000000000
      9334      3085  TIP3      OH2            -9.8153803985        0.3934142534      -17.3929746635  SOLV      3074            0.0000000000
      9335      3085  TIP3      H1             -9.5955503985        0.8649542534      -18.1964346635  SOLV      3074            0.0000000000
      9336      3085  TIP3      H2             -9.2569803985        0.7876742534      -16.7229146635  SOLV      3074            0.0000000000
      9337      3086  TIP3      OH2           -12.1467703985       12.5238942534      -18.5302246635  SOLV      3075            0.0000000000
      9338      3086  TIP3      H1            -12.9631603985       13.0208642534      -18.4777946635  SOLV      3075            0.0000000000
      9339      3086  TIP3      H2            -11.6171403985       12.9992442534      -19.1703446635  SOLV      3075            0.0000000000
      9340      3087  TIP3      OH2           -12.6153903985        2.1212942534      -16.5581346635  SOLV      3076            0.0000000000
      9341      3087  TIP3      H1            -11.8031303985        2.6256142534      -16.5119646635  SOLV      3076            0.0000000000
      9342      3087  TIP3      H2            -12.8600903985        1.9762642534      -15.6441746635  SOLV      3076            0.0000000000
      9343      3088  TIP3      OH2           -12.0797503985        3.1075642534       -7.3734746635  SOLV      3077            0.0000000000
      9344      3088  TIP3      H1            -11.9607203985        3.6811042534       -6.6164346635  SOLV      3077            0.0000000000
      9345      3088  TIP3      H2            -11.4242903985        2.4195042534       -7.2586946635  SOLV      3077            0.0000000000
      9346      3089  TIP3      OH2           -11.7317203985       -0.7974057466      -15.6200246635  SOLV      3078            0.0000000000
      9347      3089  TIP3      H1            -12.0783703985       -0.1803457466      -14.9755946635  SOLV      3078            0.0000000000
      9348      3089  TIP3      H2            -11.0730303985       -0.2968357466      -16.1014746635  SOLV      3078            0.0000000000
      9349      3090  TIP3      OH2           -14.8084603985       13.5676142534      -18.5485346635  SOLV      3079            0.0000000000
      9350      3090  TIP3      H1            -14.6475903985       14.3673642534      -19.0492746635  SOLV      3079            0.0000000000
      9351      3090  TIP3      H2            -15.0056803985       13.8742142534      -17.6634746635  SOLV      3079            0.0000000000
      9352      3091  TIP3      OH2           -16.0740203985        0.2655342534      -18.9327746635  SOLV      3080            0.0000000000
      9353      3091  TIP3      H1            -16.1575403985        1.1538442534      -18.5861346635  SOLV      3080            0.0000000000
      9354      3091  TIP3      H2            -15.1839903985        0.0002042534      -18.7010946635  SOLV      3080            0.0000000000
      9355      3092  TIP3      OH2            -5.8751703985        1.0145942534       -6.5385046635  SOLV      3081            0.0000000000
      9356      3092  TIP3      H1             -6.7915903985        1.2767642534       -6.6261346635  SOLV      3081            0.0000000000
      9357      3092  TIP3      H2             -5.5396703985        1.0114942534       -7.4349746635  SOLV      3081            0.0000000000
      9358      3093  TIP3      OH2            -7.2730703985        4.7646942534      -12.4427746635  SOLV      3082            0.0000000000
      9359      3093  TIP3      H1             -8.0706303985        4.3497142534      -12.7712746635  SOLV      3082            0.0000000000
      9360      3093  TIP3      H2             -6.8279603985        4.0740642534      -11.9517246635  SOLV      3082            0.0000000000
      9361      3094  TIP3      OH2           -17.8154903985       10.6927542534      -19.8723246635  SOLV      3083            0.0000000000
      9362      3094  TIP3      H1            -17.2233403985       11.3922342534      -19.5960846635  SOLV      3083            0.0000000000
      9363      3094  TIP3      H2            -17.3561903985       10.2597042534      -20.5918646635  SOLV      3083            0.0000000000
      9364      3095  TIP3      OH2           -19.4995703985        3.3570542534      -20.7563846635  SOLV      3084            0.0000000000
      9365      3095  TIP3      H1            -19.5443103985        4.2963642534      -20.5776846635  SOLV      3084            0.0000000000
      9366      3095  TIP3      H2            -20.3872503985        3.1215442534      -21.0261746635  SOLV      3084            0.0000000000
      9367      3096  TIP3      OH2            -6.1866103985       14.0209442534      -10.8204246635  SOLV      3085            0.0000000000
      9368      3096  TIP3      H1             -6.3421803985       14.6993842534      -11.4774946635  SOLV      3085            0.0000000000
      9369      3096  TIP3      H2             -5.2539703985       14.0928742534      -10.6173646635  SOLV      3085            0.0000000000
      9370      3097  TIP3      OH2           -18.6913703985       -1.8612857466      -12.0832846635  SOLV      3086            0.0000000000
      9371      3097  TIP3      H1            -18.9203903985       -1.8020357466      -13.0107846635  SOLV      3086            0.0000000000
      9372      3097  TIP3      H2            -19.1340303985       -2.6527357466      -11.7768746635  SOLV      3086            0.0000000000
      9373      3098  TIP3      OH2           -19.7610403985       12.0794242534      -15.9227046635  SOLV      3087            0.0000000000
      9374      3098  TIP3      H1            -20.5931803985       12.5516942534      -15.8955646635  SOLV      3087            0.0000000000
      9375      3098  TIP3      H2            -19.2152103985       12.5891842534      -16.5213946635  SOLV      3087            0.0000000000
      9376      3099  TIP3      OH2           -20.4726703985       14.6917942534       -4.5929046635  SOLV      3088            0.0000000000
      9377      3099  TIP3      H1            -19.9324503985       14.4751942534       -3.8329846635  SOLV      3088            0.0000000000
      9378      3099  TIP3      H2            -20.9538703985       13.8863942534       -4.7826546635  SOLV      3088            0.0000000000
      9379      3100  TIP3      OH2           -15.8753303985       13.6112342534       -2.9724846635  SOLV      3089            0.0000000000
      9380      3100  TIP3      H1            -15.1076103985       13.1523142534       -2.6315646635  SOLV      3089            0.0000000000
      9381      3100  TIP3      H2            -15.8967103985       13.3852142534       -3.9023646635  SOLV      3089            0.0000000000
      9382      3101  TIP3      OH2           -11.7833703985       13.1192942534      -21.5973046635  SOLV      3090            0.0000000000
      9383      3101  TIP3      H1            -12.4272703985       12.4881542534      -21.2759346635  SOLV      3090            0.0000000000
      9384      3101  TIP3      H2            -11.0215403985       12.5880942534      -21.8289546635  SOLV      3090            0.0000000000
      9385      3102  TIP3      OH2            -9.2984603985       11.9913442534       -4.2433346635  SOLV      3091            0.0000000000
      9386      3102  TIP3      H1             -9.6495103985       11.1346442534       -4.0002946635  SOLV      3091            0.0000000000
      9387      3102  TIP3      H2             -8.5721403985       12.1340142534       -3.6364346635  SOLV      3091            0.0000000000
      9388      3103  TIP3      OH2            -7.1790803985       12.9362842534      -21.3635046635  SOLV      3092            0.0000000000
      9389      3103  TIP3      H1             -6.8960403985       12.1418042534      -20.9108146635  SOLV      3092            0.0000000000
      9390      3103  TIP3      H2             -6.4392903985       13.1693842534      -21.9243946635  SOLV      3092            0.0000000000
      9391      3104  TIP3      OH2           -20.5657203985        8.5022042534       -3.6384746635  SOLV      3093            0.0000000000
      9392      3104  TIP3      H1            -20.4216703985        7.6002742534       -3.9248046635  SOLV      3093            0.0000000000
      9393      3104  TIP3      H2            -21.3379803985        8.7884142534       -4.1262446635  SOLV      3093            0.0000000000
      9394      3105  TIP3      OH2           -16.2243503985        8.8457742534      -21.5060146635  SOLV      3094            0.0000000000
      9395      3105  TIP3      H1            -16.1599403985        8.0517342534      -20.9753746635  SOLV      3094            0.0000000000
      9396      3105  TIP3      H2            -15.5714303985        8.7270542534      -22.1958146635  SOLV      3094            0.0000000000
      9397      3106  TIP3      OH2           -13.9101103985        8.4720142534       -4.2058346635  SOLV      3095            0.0000000000
      9398      3106  TIP3      H1            -14.2387303985        8.7428242534       -5.0630946635  SOLV      3095            0.0000000000
      9399      3106  TIP3      H2            -13.7582903985        7.5309942534       -4.2933346635  SOLV      3095            0.0000000000
      9400      3107  TIP3      OH2           -10.8720103985        9.8929442534      -21.7702146635  SOLV      3096            0.0000000000
      9401      3107  TIP3      H1            -11.1406003985       10.0731542534      -20.8693246635  SOLV      3096            0.0000000000
      9402      3107  TIP3      H2            -11.0784503985        8.9675642534      -21.9016346635  SOLV      3096            0.0000000000
      9403      3108  TIP3      OH2            -8.1755903985        8.3877442534       -6.8226046635  SOLV      3097            0.0000000000
      9404      3108  TIP3      H1             -7.4301103985        8.9761142534       -6.9422046635  SOLV      3097            0.0000000000
      9405      3108  TIP3      H2             -8.9329103985        8.9697142534       -6.7592946635  SOLV      3097            0.0000000000
      9406      3109  TIP3      OH2           -19.7330703985        5.7025342534       -4.2185446635  SOLV      3098            0.0000000000
      9407      3109  TIP3      H1            -19.3249503985        4.8451942534       -4.3394846635  SOLV      3098            0.0000000000
      9408      3109  TIP3      H2            -19.9933103985        5.7166642534       -3.2975146635  SOLV      3098            0.0000000000
      9409      3110  TIP3      OH2           -15.0749703985        6.8183942534      -19.2002146635  SOLV      3099            0.0000000000
      9410      3110  TIP3      H1            -15.5347703985        6.3342242534      -18.5143646635  SOLV      3099            0.0000000000
      9411      3110  TIP3      H2            -14.8201003985        6.1499342534      -19.8361646635  SOLV      3099            0.0000000000
      9412      3111  TIP3      OH2           -15.7860403985        4.7111042534       -6.8442546635  SOLV      3100            0.0000000000
      9413      3111  TIP3      H1            -16.4044303985        5.3857642534       -6.5637846635  SOLV      3100            0.0000000000
      9414      3111  TIP3      H2            -15.4419203985        5.0324942534       -7.6776346635  SOLV      3100            0.0000000000
      9415      3112  TIP3      OH2           -14.0039303985        5.0615742534      -20.9378946635  SOLV      3101            0.0000000000
      9416      3112  TIP3      H1            -14.1844303985        4.9066942534      -21.8650646635  SOLV      3101            0.0000000000
      9417      3112  TIP3      H2            -13.0538803985        5.1694442534      -20.8931046635  SOLV      3101            0.0000000000
      9418      3113  TIP3      OH2           -10.7662203985        7.1826342534       -3.5667746635  SOLV      3102            0.0000000000
      9419      3113  TIP3      H1             -9.8131003985        7.2665442534       -3.5941746635  SOLV      3102            0.0000000000
      9420      3113  TIP3      H2            -10.9267603985        6.4708142534       -2.9472846635  SOLV      3102            0.0000000000
      9421      3114  TIP3      OH2            -4.6141003985        7.4159942534      -21.4920846635  SOLV      3103            0.0000000000
      9422      3114  TIP3      H1             -4.8876203985        6.9915442534      -22.3052546635  SOLV      3103            0.0000000000
      9423      3114  TIP3      H2             -4.5746903985        8.3474442534      -21.7090446635  SOLV      3103            0.0000000000
      9424      3115  TIP3      OH2           -15.4466703985        2.0661842534       -5.7619446635  SOLV      3104            0.0000000000
      9425      3115  TIP3      H1            -15.2965803985        1.3373142534       -6.3639746635  SOLV      3104            0.0000000000
      9426      3115  TIP3      H2            -15.4444303985        2.8433542534       -6.3207246635  SOLV      3104            0.0000000000
      9427      3116  TIP3      OH2           -15.0341003985        0.4357642534       -8.2692046635  SOLV      3105            0.0000000000
      9428      3116  TIP3      H1            -14.4983503985        0.8874342534       -8.9212746635  SOLV      3105            0.0000000000
      9429      3116  TIP3      H2            -15.8861403985        0.3277442534       -8.6917946635  SOLV      3105            0.0000000000
      9430      3117  TIP3      OH2           -13.4522603985        5.8753842534       -8.0296846635  SOLV      3106            0.0000000000
      9431      3117  TIP3      H1            -12.7017803985        5.7191342534       -8.6029046635  SOLV      3106            0.0000000000
      9432      3117  TIP3      H2            -13.7914303985        6.7270442534       -8.3051346635  SOLV      3106            0.0000000000
      9433      3118  TIP3      OH2            -9.0366403985        3.6905642534       -3.0011546635  SOLV      3107            0.0000000000
      9434      3118  TIP3      H1             -8.8445103985        2.7595042534       -3.1127046635  SOLV      3107            0.0000000000
      9435      3118  TIP3      H2             -8.1790103985        4.1155142534       -3.0116146635  SOLV      3107            0.0000000000
      9436      3119  TIP3      OH2            -7.7199203985        6.4790842534       -4.9238846635  SOLV      3108            0.0000000000
      9437      3119  TIP3      H1             -8.0014203985        7.1885442534       -5.5015046635  SOLV      3108            0.0000000000
      9438      3119  TIP3      H2             -6.7774903985        6.4063842534       -5.0747646635  SOLV      3108            0.0000000000
      9439      3120  TIP3      OH2           -16.9680403985        3.2645342534       -3.8503846635  SOLV      3109            0.0000000000
      9440      3120  TIP3      H1            -17.7351403985        2.7320142534       -4.0606246635  SOLV      3109            0.0000000000
      9441      3120  TIP3      H2            -16.2891403985        2.9545742534       -4.4497546635  SOLV      3109            0.0000000000
      9442      3121  TIP3      OH2           -14.2285503985       -2.1076657466       -7.8378446635  SOLV      3110            0.0000000000
      9443      3121  TIP3      H1            -14.3265903985       -1.1613457466       -7.9432246635  SOLV      3110            0.0000000000
      9444      3121  TIP3      H2            -14.9709303985       -2.4802857466       -8.3134946635  SOLV      3110            0.0000000000
      9445      3122  TIP3      OH2           -12.9645003985        2.2138742534       -4.2740046635  SOLV      3111            0.0000000000
      9446      3122  TIP3      H1            -13.1999603985        1.9945442534       -3.3725146635  SOLV      3111            0.0000000000
      9447      3122  TIP3      H2            -13.7478103985        2.0069942534       -4.7837546635  SOLV      3111            0.0000000000
      9448      3123  TIP3      OH2           -10.2488403985        1.3412242534       -5.1986546635  SOLV      3112            0.0000000000
      9449      3123  TIP3      H1            -11.1963003985        1.3731942534       -5.0663246635  SOLV      3112            0.0000000000
      9450      3123  TIP3      H2             -9.9361703985        0.7159342534       -4.5448346635  SOLV      3112            0.0000000000
      9451      3124  TIP3      OH2            -8.6146903985       -0.0246657466       -3.1934646635  SOLV      3113            0.0000000000
      9452      3124  TIP3      H1             -8.7115103985       -0.9769357466       -3.1992746635  SOLV      3113            0.0000000000
      9453      3124  TIP3      H2             -8.9363803985        0.2440142534       -2.3329146635  SOLV      3113            0.0000000000
      9454      3125  TIP3      OH2           -18.7877603985        1.1849142534       -4.1459146635  SOLV      3114            0.0000000000
      9455      3125  TIP3      H1            -18.5760203985        0.4785242534       -4.7561646635  SOLV      3114            0.0000000000
      9456      3125  TIP3      H2            -18.8990103985        0.7475142534       -3.3017946635  SOLV      3114            0.0000000000
      9457      3126  TIP3      OH2           -14.0067403985       -2.8139257466       -5.1665646635  SOLV      3115            0.0000000000
      9458      3126  TIP3      H1            -13.2949003985       -3.4537057466       -5.1806546635  SOLV      3115            0.0000000000
      9459      3126  TIP3      H2            -14.1077003985       -2.5470957466       -6.0802546635  SOLV      3115            0.0000000000
      9460      3127  TIP3      OH2           -13.6529903985       -1.1310857466       -3.1129346635  SOLV      3116            0.0000000000
      9461      3127  TIP3      H1            -13.7847703985       -1.6067057466       -3.9330846635  SOLV      3116            0.0000000000
      9462      3127  TIP3      H2            -14.2522503985       -0.3867257466       -3.1682246635  SOLV      3116            0.0000000000
      9463      3128  TIP3      OH2           -14.1067603985       15.7519442534      -19.9365346635  SOLV      3117            0.0000000000
      9464      3128  TIP3      H1            -13.1736903985       15.9098142534      -19.7926946635  SOLV      3117            0.0000000000
      9465      3128  TIP3      H2            -14.3708803985       16.4272442534      -20.5613846635  SOLV      3117            0.0000000000
      9466      3129  TIP3      OH2           -20.5382703985       10.3883242534      -20.4537246635  SOLV      3118            0.0000000000
      9467      3129  TIP3      H1            -19.6243503985       10.4672142534      -20.1803346635  SOLV      3118            0.0000000000
      9468      3129  TIP3      H2            -20.5309603985        9.7012842534      -21.1201646635  SOLV      3118            0.0000000000
      9469      3130  TIP3      OH2           -21.8892103985       15.7811742534      -15.3763346635  SOLV      3119            0.0000000000
      9470      3130  TIP3      H1            -22.5365003985       15.3193442534      -15.9092146635  SOLV      3119            0.0000000000
      9471      3130  TIP3      H2            -21.5347503985       15.1095042534      -14.7937146635  SOLV      3119            0.0000000000
      9472      3131  TIP3      OH2           -21.0192903985       13.8618742534      -13.5717146635  SOLV      3120            0.0000000000
      9473      3131  TIP3      H1            -21.3536103985       12.9816042534      -13.3996946635  SOLV      3120            0.0000000000
      9474      3131  TIP3      H2            -20.7970503985       14.2073742534      -12.7071546635  SOLV      3120            0.0000000000
      9475      3132  TIP3      OH2            -3.4708103985       14.6715142534      -10.5912346635  SOLV      3121            0.0000000000
      9476      3132  TIP3      H1             -3.4921403985       14.8563542534       -9.6522946635  SOLV      3121            0.0000000000
      9477      3132  TIP3      H2             -2.7801903985       15.2399142534      -10.9320946635  SOLV      3121            0.0000000000
      9478      3133  TIP3      OH2            -3.9075203985       14.2386242534       -7.6693246635  SOLV      3122            0.0000000000
      9479      3133  TIP3      H1             -4.3946503985       13.5030342534       -8.0405846635  SOLV      3122            0.0000000000
      9480      3133  TIP3      H2             -3.3582503985       13.8450142534       -6.9913846635  SOLV      3122            0.0000000000
      9481      3134  TIP3      OH2            -5.4567903985       10.0284342534       -3.0312946635  SOLV      3123            0.0000000000
      9482      3134  TIP3      H1             -6.3226803985        9.9234042534       -2.6370646635  SOLV      3123            0.0000000000
      9483      3134  TIP3      H2             -5.0802003985       10.7867642534       -2.5848246635  SOLV      3123            0.0000000000
      9484      3135  TIP3      OH2            -4.1558203985        8.2848042534      -17.5170446635  SOLV      3124            0.0000000000
      9485      3135  TIP3      H1             -3.3056803985        8.7058942534      -17.3898846635  SOLV      3124            0.0000000000
      9486      3135  TIP3      H2             -4.1503103985        7.5448142534      -16.9099046635  SOLV      3124            0.0000000000
      9487      3136  TIP3      OH2            -3.7612603985        6.3385442534      -15.6934746635  SOLV      3125            0.0000000000
      9488      3136  TIP3      H1             -4.4878003985        5.8588042534      -15.2957146635  SOLV      3125            0.0000000000
      9489      3136  TIP3      H2             -3.1799303985        6.5440142534      -14.9613146635  SOLV      3125            0.0000000000
      9490      3137  TIP3      OH2            -4.0021403985        9.1232942534      -10.7457146635  SOLV      3126            0.0000000000
      9491      3137  TIP3      H1             -3.1687203985        8.7452942534      -11.0263546635  SOLV      3126            0.0000000000
      9492      3137  TIP3      H2             -3.8901103985       10.0664142534      -10.8648046635  SOLV      3126            0.0000000000
      9493      3138  TIP3      OH2            -5.5159103985       12.0010442534       -8.4388746635  SOLV      3127            0.0000000000
      9494      3138  TIP3      H1             -6.1633803985       12.3261942534       -7.8133546635  SOLV      3127            0.0000000000
      9495      3138  TIP3      H2             -6.0335103985       11.5608142534       -9.1130446635  SOLV      3127            0.0000000000
      9496      3139  TIP3      OH2            -3.4929503985        6.2393942534      -19.3023446635  SOLV      3128            0.0000000000
      9497      3139  TIP3      H1             -4.0148403985        6.5958042534      -20.0212546635  SOLV      3128            0.0000000000
      9498      3139  TIP3      H2             -3.5260303985        6.9141742534      -18.6242546635  SOLV      3128            0.0000000000
      9499      3140  TIP3      OH2            -5.1440503985        3.4789542534      -20.7516346635  SOLV      3129            0.0000000000
      9500      3140  TIP3      H1             -5.0476103985        4.1456542534      -21.4316646635  SOLV      3129            0.0000000000
      9501      3140  TIP3      H2             -5.2840903985        2.6635842534      -21.2330846635  SOLV      3129            0.0000000000
      9502      3141  TIP3      OH2            -5.9745803985        4.8591942534      -15.1306046635  SOLV      3130            0.0000000000
      9503      3141  TIP3      H1             -6.1247003985        3.9140542534      -15.1508246635  SOLV      3130            0.0000000000
      9504      3141  TIP3      H2             -6.3281303985        5.1403342534      -14.2866946635  SOLV      3130            0.0000000000
      9505      3142  TIP3      OH2           -20.9393403985        6.9374142534      -11.1202246635  SOLV      3131            0.0000000000
      9506      3142  TIP3      H1            -20.7550503985        6.8555842534      -12.0559346635  SOLV      3131            0.0000000000
      9507      3142  TIP3      H2            -20.0900503985        6.8131142534      -10.6965846635  SOLV      3131            0.0000000000
      9508      3143  TIP3      OH2            -5.1182903985        6.8295242534       -5.4917746635  SOLV      3132            0.0000000000
      9509      3143  TIP3      H1             -4.5355603985        6.0947542534       -5.3000546635  SOLV      3132            0.0000000000
      9510      3143  TIP3      H2             -4.5543603985        7.6015542534       -5.4451946635  SOLV      3132            0.0000000000
      9511      3144  TIP3      OH2            -3.6215803985        4.7321042534       -4.8072346635  SOLV      3133            0.0000000000
      9512      3144  TIP3      H1             -4.4849103985        4.3533142534       -4.9727646635  SOLV      3133            0.0000000000
      9513      3144  TIP3      H2             -3.0172103985        3.9935842534       -4.8816546635  SOLV      3133            0.0000000000
      9514      3145  TIP3      OH2            -5.8966703985        0.8869342534      -21.6340846635  SOLV      3134            0.0000000000
      9515      3145  TIP3      H1             -5.2860903985        0.5156142534      -20.9972646635  SOLV      3134            0.0000000000
      9516      3145  TIP3      H2             -6.7335203985        0.4656242534      -21.4380846635  SOLV      3134            0.0000000000
      9517      3146  TIP3      OH2            -6.2641003985        2.4417742534      -16.6680946635  SOLV      3135            0.0000000000
      9518      3146  TIP3      H1             -5.9843903985        1.5348142534      -16.5439246635  SOLV      3135            0.0000000000
      9519      3146  TIP3      H2             -5.5049303985        2.8759242534      -17.0571746635  SOLV      3135            0.0000000000
      9520      3147  TIP3      OH2            -5.6522703985        3.0235142534      -11.2322046635  SOLV      3136            0.0000000000
      9521      3147  TIP3      H1             -4.7194703985        3.2355042534      -11.2666046635  SOLV      3136            0.0000000000
      9522      3147  TIP3      H2             -5.8875203985        3.1247242534      -10.3099046635  SOLV      3136            0.0000000000
      9523      3148  TIP3      OH2            -5.6230803985        3.7600442534       -8.4562646635  SOLV      3137            0.0000000000
      9524      3148  TIP3      H1             -6.4659503985        4.0280842534       -8.0902846635  SOLV      3137            0.0000000000
      9525      3148  TIP3      H2             -5.1806503985        4.5822342534       -8.6671546635  SOLV      3137            0.0000000000
      9526      3149  TIP3      OH2           -21.3418603985        2.2079142534       -4.9793446635  SOLV      3138            0.0000000000
      9527      3149  TIP3      H1            -20.4223703985        2.0857442534       -4.7430346635  SOLV      3138            0.0000000000
      9528      3149  TIP3      H2            -21.7914103985        1.4578842534       -4.5899946635  SOLV      3138            0.0000000000
      9529      3150  TIP3      OH2            -5.6506203985       -0.2952957466      -16.6198946635  SOLV      3139            0.0000000000
      9530      3150  TIP3      H1             -5.4681203985       -0.7441457466      -15.7943946635  SOLV      3139            0.0000000000
      9531      3150  TIP3      H2             -6.2503303985       -0.8798557466      -17.0834346635  SOLV      3139            0.0000000000
      9532      3151  TIP3      OH2           -20.1206103985        0.5200742534      -12.0880546635  SOLV      3140            0.0000000000
      9533      3151  TIP3      H1            -19.6754503985       -0.2716757466      -11.7860846635  SOLV      3140            0.0000000000
      9534      3151  TIP3      H2            -19.6543103985        1.2365942534      -11.6574946635  SOLV      3140            0.0000000000
      9535      3152  TIP3      OH2           -21.8165803985        3.5193742534      -11.0190346635  SOLV      3141            0.0000000000
      9536      3152  TIP3      H1            -21.3246003985        3.2984242534      -11.8098346635  SOLV      3141            0.0000000000
      9537      3152  TIP3      H2            -21.4544903985        4.3597142534      -10.7380846635  SOLV      3141            0.0000000000
      9538      3153  TIP3      OH2            -3.7840003985       -0.2274857466      -20.0918646635  SOLV      3142            0.0000000000
      9539      3153  TIP3      H1             -3.3717403985       -0.9489157466      -20.5670646635  SOLV      3142            0.0000000000
      9540      3153  TIP3      H2             -3.1023503985        0.4419742534      -20.0334346635  SOLV      3142            0.0000000000
      9541      3154  TIP3      OH2           -21.5029303985       -0.2227157466      -16.9647946635  SOLV      3143            0.0000000000
      9542      3154  TIP3      H1            -22.4280903985       -0.0140557466      -17.0942446635  SOLV      3143            0.0000000000
      9543      3154  TIP3      H2            -21.0489403985        0.2613642534      -17.6545646635  SOLV      3143            0.0000000000
      9544      3155  TIP3      OH2            -6.7322103985       14.7614542534      -15.0190546635  SOLV      3144            0.0000000000
      9545      3155  TIP3      H1             -6.0799203985       14.4136642534      -15.6271446635  SOLV      3144            0.0000000000
      9546      3155  TIP3      H2             -6.2218303985       15.2497742534      -14.3730846635  SOLV      3144            0.0000000000
      9547      3156  TIP3      OH2           -21.5393903985       -1.4848157466       -8.6205446635  SOLV      3145            0.0000000000
      9548      3156  TIP3      H1            -22.2043403985       -1.7307857466       -7.9774546635  SOLV      3145            0.0000000000
      9549      3156  TIP3      H2            -21.9822603985       -0.8627757466       -9.1977446635  SOLV      3145            0.0000000000
      9550      3157  TIP3      OH2           -19.3474603985       11.6905942534       -4.4759646635  SOLV      3146            0.0000000000
      9551      3157  TIP3      H1            -20.1682103985       11.8652442534       -4.9364946635  SOLV      3146            0.0000000000
      9552      3157  TIP3      H2            -19.5996803985       11.6170642534       -3.5555246635  SOLV      3146            0.0000000000
      9553      3158  TIP3      OH2           -16.3931703985       12.6647142534       -8.2175646635  SOLV      3147            0.0000000000
      9554      3158  TIP3      H1            -16.8180603985       13.4745642534       -8.5001046635  SOLV      3147            0.0000000000
      9555      3158  TIP3      H2            -15.4888903985       12.7501242534       -8.5195846635  SOLV      3147            0.0000000000
      9556      3159  TIP3      OH2           -12.0820303985       14.0637142534       -5.2581946635  SOLV      3148            0.0000000000
      9557      3159  TIP3      H1            -11.8972803985       13.7303242534       -4.3801646635  SOLV      3148            0.0000000000
      9558      3159  TIP3      H2            -11.2355803985       14.3735742534       -5.5802746635  SOLV      3148            0.0000000000
      9559      3160  TIP3      OH2            -9.7369903985       15.3496042534       -6.0140546635  SOLV      3149            0.0000000000
      9560      3160  TIP3      H1             -9.0601003985       14.7168342534       -6.2541346635  SOLV      3149            0.0000000000
      9561      3160  TIP3      H2             -9.4151103985       15.7506542534       -5.2067246635  SOLV      3149            0.0000000000
      9562      3161  TIP3      OH2            -4.8196103985       -2.0608457466       -6.9345546635  SOLV      3150            0.0000000000
      9563      3161  TIP3      H1             -5.6322603985       -1.7358157466       -7.3220846635  SOLV      3150            0.0000000000
      9564      3161  TIP3      H2             -4.5867603985       -2.8209957466       -7.4676446635  SOLV      3150            0.0000000000
      9565      3162  TIP3      OH2           -18.9915003985       15.9211042534       -8.1700346635  SOLV      3151            0.0000000000
      9566      3162  TIP3      H1            -19.7118603985       16.3612042534       -8.6212646635  SOLV      3151            0.0000000000
      9567      3162  TIP3      H2            -19.3571003985       15.6705742534       -7.3216346635  SOLV      3151            0.0000000000
      9568      3163  TIP3      OH2           -16.5242403985       15.5214942534       -9.1403146635  SOLV      3152            0.0000000000
      9569      3163  TIP3      H1            -17.3890203985       15.5933442534       -8.7363046635  SOLV      3152            0.0000000000
      9570      3163  TIP3      H2            -16.5793403985       16.0682242534       -9.9240646635  SOLV      3152            0.0000000000
      9571      3164  TIP3      OH2           -11.8136803985       15.4093842534       -9.9647146635  SOLV      3153            0.0000000000
      9572      3164  TIP3      H1            -12.2702803985       15.9383542534      -10.6188746635  SOLV      3153            0.0000000000
      9573      3164  TIP3      H2            -11.6508803985       16.0125242534       -9.2394846635  SOLV      3153            0.0000000000
      9574      3165  TIP3      OH2            -9.4860503985       14.2873442534       -9.0196846635  SOLV      3154            0.0000000000
      9575      3165  TIP3      H1            -10.3906803985       14.4523642534       -9.2854746635  SOLV      3154            0.0000000000
      9576      3165  TIP3      H2             -9.0571903985       15.1405642534       -9.0853446635  SOLV      3154            0.0000000000
      9577      3166  TIP3      OH2            -6.8818603985       15.8572542534       -8.7249046635  SOLV      3155            0.0000000000
      9578      3166  TIP3      H1             -7.0636603985       16.7731442534       -8.9354146635  SOLV      3155            0.0000000000
      9579      3166  TIP3      H2             -6.7050803985       15.4469642534       -9.5714446635  SOLV      3155            0.0000000000
      9580      3167  TIP3      OH2           -19.5766903985       14.5443542534      -11.2598546635  SOLV      3156            0.0000000000
      9581      3167  TIP3      H1            -19.5950903985       14.1188642534      -10.4026246635  SOLV      3156            0.0000000000
      9582      3167  TIP3      H2            -18.7719003985       14.2258542534      -11.6686346635  SOLV      3156            0.0000000000
      9583      3168  TIP3      OH2           -17.4353803985       13.2542242534      -12.6048646635  SOLV      3157            0.0000000000
      9584      3168  TIP3      H1            -17.6543103985       12.3379642534      -12.4352646635  SOLV      3157            0.0000000000
      9585      3168  TIP3      H2            -16.6111603985       13.3942642534      -12.1387246635  SOLV      3157            0.0000000000
      9586      3169  TIP3      OH2           -14.8981303985       13.7241542534      -11.7560646635  SOLV      3158            0.0000000000
      9587      3169  TIP3      H1            -14.6855603985       12.8360542534      -12.0429746635  SOLV      3158            0.0000000000
      9588      3169  TIP3      H2            -14.8336203985       13.6899242534      -10.8016646635  SOLV      3158            0.0000000000
      9589      3170  TIP3      OH2           -11.3897603985       -0.6117857466      -12.6117346635  SOLV      3159            0.0000000000
      9590      3170  TIP3      H1            -12.0640803985       -1.2412257466      -12.3561546635  SOLV      3159            0.0000000000
      9591      3170  TIP3      H2            -10.8258403985       -1.0958957466      -13.2149446635  SOLV      3159            0.0000000000
      9592      3171  TIP3      OH2            -6.2470403985       -2.5043857466      -12.4990246635  SOLV      3160            0.0000000000
      9593      3171  TIP3      H1             -5.6432803985       -1.9568457466      -13.0009246635  SOLV      3160            0.0000000000
      9594      3171  TIP3      H2             -7.1168403985       -2.1853457466      -12.7396146635  SOLV      3160            0.0000000000
      9595      3172  TIP3      OH2            -4.5200003985       -1.3655157466      -14.1659346635  SOLV      3161            0.0000000000
      9596      3172  TIP3      H1             -3.9082503985       -1.8799457466      -14.6925746635  SOLV      3161            0.0000000000
      9597      3172  TIP3      H2             -4.1376603985       -0.4883057466      -14.1424946635  SOLV      3161            0.0000000000
      9598      3173  TIP3      OH2           -19.0630103985       -1.9777557466      -14.7897446635  SOLV      3162            0.0000000000
      9599      3173  TIP3      H1            -19.8400303985       -2.2122657466      -15.2971546635  SOLV      3162            0.0000000000
      9600      3173  TIP3      H2            -18.5326503985       -2.7745457466      -14.7809446635  SOLV      3162            0.0000000000
      9601      3174  TIP3      OH2           -20.2266703985       -2.1799457466      -18.9861346635  SOLV      3163            0.0000000000
      9602      3174  TIP3      H1            -19.7876003985       -1.5688957466      -19.5777846635  SOLV      3163            0.0000000000
      9603      3174  TIP3      H2            -20.8604303985       -1.6415357466      -18.5121346635  SOLV      3163            0.0000000000
      9604      3175  TIP3      OH2           -14.4837503985       -2.0510457466      -14.9764346635  SOLV      3164            0.0000000000
      9605      3175  TIP3      H1            -13.6094103985       -1.6626157466      -15.0060046635  SOLV      3164            0.0000000000
      9606      3175  TIP3      H2            -14.6196703985       -2.2662657466      -14.0537146635  SOLV      3164            0.0000000000
      9607      3176  TIP3      OH2            -8.9269103985       -2.0210657466      -13.3272646635  SOLV      3165            0.0000000000
      9608      3176  TIP3      H1             -8.8507503985       -1.9259057466      -14.2766646635  SOLV      3165            0.0000000000
      9609      3176  TIP3      H2             -9.2019903985       -2.9287757466      -13.1983546635  SOLV      3165            0.0000000000
      9610      3177  TIP3      OH2            -7.5736503985       -1.9952857466      -17.6347646635  SOLV      3166            0.0000000000
      9611      3177  TIP3      H1             -8.2765403985       -1.3803657466      -17.8446246635  SOLV      3166            0.0000000000
      9612      3177  TIP3      H2             -8.0185103985       -2.8326157466      -17.5036746635  SOLV      3166            0.0000000000
      9613      3178  TIP3      OH2           -20.3257203985       13.7682742534      -18.0886246635  SOLV      3167            0.0000000000
      9614      3178  TIP3      H1            -21.0107303985       13.7301642534      -18.7561146635  SOLV      3167            0.0000000000
      9615      3178  TIP3      H2            -20.3220003985       14.6810342534      -17.8004146635  SOLV      3167            0.0000000000
      9616      3179  TIP3      OH2           -18.3657603985       -0.2637957466      -20.5437246635  SOLV      3168            0.0000000000
      9617      3179  TIP3      H1            -17.8744203985       -0.8935557466      -21.0711746635  SOLV      3168            0.0000000000
      9618      3179  TIP3      H2            -17.7421303985        0.0321442534      -19.8806046635  SOLV      3168            0.0000000000
      9619      3180  TIP3      OH2           -13.3397503985        0.0293542534      -18.0866746635  SOLV      3169            0.0000000000
      9620      3180  TIP3      H1            -13.1616203985       -0.6173257466      -17.4038146635  SOLV      3169            0.0000000000
      9621      3180  TIP3      H2            -13.3931303985        0.8631242534      -17.6195646635  SOLV      3169            0.0000000000
      9622      3181  TIP3      OH2           -11.4613703985       14.9777642534      -19.6910046635  SOLV      3170            0.0000000000
      9623      3181  TIP3      H1            -10.5953503985       15.3445042534      -19.8691846635  SOLV      3170            0.0000000000
      9624      3181  TIP3      H2            -11.7080903985       14.5385642534      -20.5049246635  SOLV      3170            0.0000000000
      9625      3182  TIP3      OH2            -4.7524103985       14.5407942534      -17.0118946635  SOLV      3171            0.0000000000
      9626      3182  TIP3      H1             -4.9467003985       13.7930042534      -17.5769346635  SOLV      3171            0.0000000000
      9627      3182  TIP3      H2             -4.7914003985       15.2988042534      -17.5951046635  SOLV      3171            0.0000000000
      9628      3183  TIP3      OH2           -19.1052103985       -1.4635657466       -5.2721246635  SOLV      3172            0.0000000000
      9629      3183  TIP3      H1            -19.4713903985       -2.2293057466       -4.8296546635  SOLV      3172            0.0000000000
      9630      3183  TIP3      H2            -18.1923603985       -1.4345457466       -4.9856146635  SOLV      3172            0.0000000000
      9631      3184  TIP3      OH2           -17.1321303985       -2.1131257466       -3.7364146635  SOLV      3173            0.0000000000
      9632      3184  TIP3      H1            -16.2337703985       -2.3871057466       -3.9210746635  SOLV      3173            0.0000000000
      9633      3184  TIP3      H2            -17.5188203985       -2.8555257466       -3.2721546635  SOLV      3173            0.0000000000
      9634      3185  TIP3      OH2           -18.5076003985       14.6883542534      -21.0634146635  SOLV      3174            0.0000000000
      9635      3185  TIP3      H1            -18.7751403985       14.9746442534      -20.1901046635  SOLV      3174            0.0000000000
      9636      3185  TIP3      H2            -17.7363403985       14.1422742534      -20.9111646635  SOLV      3174            0.0000000000
      9637      3186  TIP3      OH2            -5.5347903985       13.2920342534       -4.8617146635  SOLV      3175            0.0000000000
      9638      3186  TIP3      H1             -6.3166003985       13.1058342534       -5.3816546635  SOLV      3175            0.0000000000
      9639      3186  TIP3      H2             -5.6068003985       14.2214642534       -4.6444646635  SOLV      3175            0.0000000000
      9640      3187  TIP3      OH2             8.8712496015        7.1784742534      -14.8309946635  SOLV      3176            0.0000000000
      9641      3187  TIP3      H1              8.9603596015        8.1222942534      -14.9632846635  SOLV      3176            0.0000000000
      9642      3187  TIP3      H2              8.2330096015        6.9031142534      -15.4890546635  SOLV      3176            0.0000000000
      9643      3188  TIP3      OH2             7.8043796015        6.4335442534      -11.4121746635  SOLV      3177            0.0000000000
      9644      3188  TIP3      H1              7.7661296015        5.7871742534      -10.7072146635  SOLV      3177            0.0000000000
      9645      3188  TIP3      H2              7.4820296015        5.9669842534      -12.1833046635  SOLV      3177            0.0000000000
      9646      3189  TIP3      OH2             0.1728796015        6.0477542534       -9.8191846635  SOLV      3178            0.0000000000
      9647      3189  TIP3      H1              0.2140896015        5.4220842534       -9.0959446635  SOLV      3178            0.0000000000
      9648      3189  TIP3      H2              0.8756496015        6.6716142534       -9.6371446635  SOLV      3178            0.0000000000
      9649      3190  TIP3      OH2            11.5103996015        9.3725842534      -13.1106646635  SOLV      3179            0.0000000000
      9650      3190  TIP3      H1             11.0696696015        8.6521842534      -12.6601046635  SOLV      3179            0.0000000000
      9651      3190  TIP3      H2             11.4973696015       10.0933042534      -12.4808946635  SOLV      3179            0.0000000000
      9652      3191  TIP3      OH2             1.0961896015       10.4976442534      -11.2842746635  SOLV      3180            0.0000000000
      9653      3191  TIP3      H1              0.7267096015        9.6956942534      -11.6538446635  SOLV      3180            0.0000000000
      9654      3191  TIP3      H2              2.0372996015       10.3291342534      -11.2379346635  SOLV      3180            0.0000000000
      9655      3192  TIP3      OH2            -2.2937603985        4.1579042534      -15.8913946635  SOLV      3181            0.0000000000
      9656      3192  TIP3      H1             -2.7414203985        5.0037742534      -15.9097446635  SOLV      3181            0.0000000000
      9657      3192  TIP3      H2             -2.8546403985        3.5783242534      -16.4068846635  SOLV      3181            0.0000000000
      9658      3193  TIP3      OH2            -1.5831503985        6.3198642534      -13.7655946635  SOLV      3182            0.0000000000
      9659      3193  TIP3      H1             -1.3698003985        5.5500242534      -13.2382946635  SOLV      3182            0.0000000000
      9660      3193  TIP3      H2             -0.8453903985        6.4095342534      -14.3688346635  SOLV      3182            0.0000000000
      9661      3194  TIP3      OH2             8.6219496015       14.4767542534      -12.8986246635  SOLV      3183            0.0000000000
      9662      3194  TIP3      H1              9.2415896015       13.8002242534      -13.1717046635  SOLV      3183            0.0000000000
      9663      3194  TIP3      H2              8.4136896015       14.2588342534      -11.9901346635  SOLV      3183            0.0000000000
      9664      3195  TIP3      OH2             6.1938196015        8.8656842534      -11.0060746635  SOLV      3184            0.0000000000
      9665      3195  TIP3      H1              6.4976096015        8.1798242534      -11.6006646635  SOLV      3184            0.0000000000
      9666      3195  TIP3      H2              6.9152196015        8.9845542534      -10.3882746635  SOLV      3184            0.0000000000
      9667      3196  TIP3      OH2            14.8567996015        0.4672142534      -10.1454546635  SOLV      3185            0.0000000000
      9668      3196  TIP3      H1             14.9060196015        1.0773342534       -9.4095446635  SOLV      3185            0.0000000000
      9669      3196  TIP3      H2             15.2823096015        0.9283042534      -10.8683446635  SOLV      3185            0.0000000000
      9670      3197  TIP3      OH2             9.3345196015        3.2599242534      -10.6785946635  SOLV      3186            0.0000000000
      9671      3197  TIP3      H1              9.4771096015        2.3136242534      -10.6584346635  SOLV      3186            0.0000000000
      9672      3197  TIP3      H2              9.2284196015        3.4669042534      -11.6071046635  SOLV      3186            0.0000000000
      9673      3198  TIP3      OH2             2.4893496015        1.3615642534      -13.4061146635  SOLV      3187            0.0000000000
      9674      3198  TIP3      H1              2.5324596015        2.2214142534      -13.8244846635  SOLV      3187            0.0000000000
      9675      3198  TIP3      H2              2.0317596015        0.8090342534      -14.0397946635  SOLV      3187            0.0000000000
      9676      3199  TIP3      OH2            10.2116196015        1.4921242534      -15.0052846635  SOLV      3188            0.0000000000
      9677      3199  TIP3      H1             10.8580496015        1.1634442534      -14.3805246635  SOLV      3188            0.0000000000
      9678      3199  TIP3      H2             10.7215596015        2.0100242534      -15.6281446635  SOLV      3188            0.0000000000
      9679      3200  TIP3      OH2            -0.8905003985        3.7581442534      -12.6439746635  SOLV      3189            0.0000000000
      9680      3200  TIP3      H1             -0.2368403985        3.2083142534      -12.2119646635  SOLV      3189            0.0000000000
      9681      3200  TIP3      H2             -0.8665703985        3.4840442534      -13.5607746635  SOLV      3189            0.0000000000
      9682      3201  TIP3      OH2             4.2659496015        5.3082742534      -13.4288246635  SOLV      3190            0.0000000000
      9683      3201  TIP3      H1              4.8820496015        4.7818142534      -12.9194246635  SOLV      3190            0.0000000000
      9684      3201  TIP3      H2              3.6798296015        4.6681442534      -13.8324646635  SOLV      3190            0.0000000000
      9685      3202  TIP3      OH2            15.2482596015        1.9451342534       -7.9094746635  SOLV      3191            0.0000000000
      9686      3202  TIP3      H1             14.5597196015        2.6032042534       -8.0048146635  SOLV      3191            0.0000000000
      9687      3202  TIP3      H2             15.2637196015        1.7479242534       -6.9729346635  SOLV      3191            0.0000000000
      9688      3203  TIP3      OH2             1.2995396015        0.2794042534       -9.3320346635  SOLV      3192            0.0000000000
      9689      3203  TIP3      H1              1.0807096015        0.8094642534      -10.0984346635  SOLV      3192            0.0000000000
      9690      3203  TIP3      H2              0.6316296015        0.5059542534       -8.6848946635  SOLV      3192            0.0000000000
      9691      3204  TIP3      OH2             8.6685196015        9.7795142534      -15.7881246635  SOLV      3193            0.0000000000
      9692      3204  TIP3      H1              8.3730296015        9.4567442534      -16.6394346635  SOLV      3193            0.0000000000
      9693      3204  TIP3      H2              8.3442996015       10.6791842534      -15.7468646635  SOLV      3193            0.0000000000
      9694      3205  TIP3      OH2             3.8686796015        7.9549742534       -9.0446646635  SOLV      3194            0.0000000000
      9695      3205  TIP3      H1              3.1285896015        8.5531242534       -8.9411446635  SOLV      3194            0.0000000000
      9696      3205  TIP3      H2              4.5826296015        8.5089342534       -9.3603046635  SOLV      3194            0.0000000000
      9697      3206  TIP3      OH2            11.9754596015        0.7830542534      -13.0246946635  SOLV      3195            0.0000000000
      9698      3206  TIP3      H1             11.7602596015        0.0173942534      -12.4920946635  SOLV      3195            0.0000000000
      9699      3206  TIP3      H2             12.6311996015        1.2555142534      -12.5118446635  SOLV      3195            0.0000000000
      9700      3207  TIP3      OH2             0.8932696015        2.1715842534      -11.3798146635  SOLV      3196            0.0000000000
      9701      3207  TIP3      H1              1.5068996015        2.8043442534      -11.0065746635  SOLV      3196            0.0000000000
      9702      3207  TIP3      H2              1.4053396015        1.6990842534      -12.0361246635  SOLV      3196            0.0000000000
      9703      3208  TIP3      OH2             2.2761096015        9.9192742534       -8.2575146635  SOLV      3197            0.0000000000
      9704      3208  TIP3      H1              2.2708696015       10.7986242534       -8.6355846635  SOLV      3197            0.0000000000
      9705      3208  TIP3      H2              1.4225196015        9.8356842534       -7.8325246635  SOLV      3197            0.0000000000
      9706      3209  TIP3      OH2            -1.6028003985        9.5900642534      -17.4755846635  SOLV      3198            0.0000000000
      9707      3209  TIP3      H1             -1.8747103985        9.8191642534      -18.3642946635  SOLV      3198            0.0000000000
      9708      3209  TIP3      H2             -1.5572303985       10.4279442534      -17.0150546635  SOLV      3198            0.0000000000
      9709      3210  TIP3      OH2            12.0221696015       11.2116542534      -10.7627346635  SOLV      3199            0.0000000000
      9710      3210  TIP3      H1             11.0805396015       11.2700442534      -10.6010446635  SOLV      3199            0.0000000000
      9711      3210  TIP3      H2             12.2987796015       12.1177042534      -10.8997646635  SOLV      3199            0.0000000000
      9712      3211  TIP3      OH2             5.3260096015       -2.4150857466      -11.8795446635  SOLV      3200            0.0000000000
      9713      3211  TIP3      H1              5.2084296015       -3.3634857466      -11.9337146635  SOLV      3200            0.0000000000
      9714      3211  TIP3      H2              4.4710196015       -2.0824757466      -11.6064346635  SOLV      3200            0.0000000000
      9715      3212  TIP3      OH2            10.2742896015       12.9930042534      -14.1375746635  SOLV      3201            0.0000000000
      9716      3212  TIP3      H1             10.6995196015       12.2857942534      -14.6226146635  SOLV      3201            0.0000000000
      9717      3212  TIP3      H2             10.5912896015       13.7942742534      -14.5543546635  SOLV      3201            0.0000000000
      9718      3213  TIP3      OH2            11.4339396015       10.8938542534      -15.6289146635  SOLV      3202            0.0000000000
      9719      3213  TIP3      H1             11.1764196015       10.2038642534      -16.2403246635  SOLV      3202            0.0000000000
      9720      3213  TIP3      H2             11.5050196015       10.4509742534      -14.7833246635  SOLV      3202            0.0000000000
      9721      3214  TIP3      OH2            13.1199596015        9.4605242534       -7.1515646635  SOLV      3203            0.0000000000
      9722      3214  TIP3      H1             13.2595896015        8.8687742534       -7.8908646635  SOLV      3203            0.0000000000
      9723      3214  TIP3      H2             13.2872396015       10.3331142534       -7.5076846635  SOLV      3203            0.0000000000
      9724      3215  TIP3      OH2             7.5924996015        6.4224742534      -17.3789646635  SOLV      3204            0.0000000000
      9725      3215  TIP3      H1              6.8810496015        6.9574442534      -17.7309146635  SOLV      3204            0.0000000000
      9726      3215  TIP3      H2              8.2834596015        6.4776842534      -18.0390746635  SOLV      3204            0.0000000000
      9727      3216  TIP3      OH2             7.6464196015        4.8799042534      -20.3404646635  SOLV      3205            0.0000000000
      9728      3216  TIP3      H1              8.3474096015        4.9025942534      -19.6890646635  SOLV      3205            0.0000000000
      9729      3216  TIP3      H2              7.9487096015        4.2518742534      -20.9965346635  SOLV      3205            0.0000000000
      9730      3217  TIP3      OH2            14.9618896015        5.8003242534       -9.0855246635  SOLV      3206            0.0000000000
      9731      3217  TIP3      H1             14.3092996015        6.4948842534       -8.9964346635  SOLV      3206            0.0000000000
      9732      3217  TIP3      H2             15.4269196015        6.0104142534       -9.8953646635  SOLV      3206            0.0000000000
      9733      3218  TIP3      OH2            10.9982696015        6.6318042534      -16.4273746635  SOLV      3207            0.0000000000
      9734      3218  TIP3      H1             10.2663696015        6.8601742534      -15.8543146635  SOLV      3207            0.0000000000
      9735      3218  TIP3      H2             11.4454896015        5.9180742534      -15.9726246635  SOLV      3207            0.0000000000
      9736      3219  TIP3      OH2            10.8956196015        4.8060642534       -7.3596746635  SOLV      3208            0.0000000000
      9737      3219  TIP3      H1             10.9755296015        5.5695042534       -6.7878246635  SOLV      3208            0.0000000000
      9738      3219  TIP3      H2             10.2943896015        5.0853042534       -8.0501646635  SOLV      3208            0.0000000000
      9739      3220  TIP3      OH2             2.6436396015        7.2624242534      -14.5448746635  SOLV      3209            0.0000000000
      9740      3220  TIP3      H1              2.3131596015        6.8917642534      -15.3631746635  SOLV      3209            0.0000000000
      9741      3220  TIP3      H2              3.2320496015        6.5918242534      -14.1980446635  SOLV      3209            0.0000000000
      9742      3221  TIP3      OH2             4.0103896015       10.6904842534      -11.8636546635  SOLV      3210            0.0000000000
      9743      3221  TIP3      H1              3.9155196015       10.1117942534      -12.6201946635  SOLV      3210            0.0000000000
      9744      3221  TIP3      H2              4.7397496015       10.3190542534      -11.3673746635  SOLV      3210            0.0000000000
      9745      3222  TIP3      OH2             3.0101896015        6.0309842534      -10.9113746635  SOLV      3211            0.0000000000
      9746      3222  TIP3      H1              3.5754396015        6.1524042534      -11.6742546635  SOLV      3211            0.0000000000
      9747      3222  TIP3      H2              3.3290796015        6.6684842534      -10.2725246635  SOLV      3211            0.0000000000
      9748      3223  TIP3      OH2             9.3194096015       11.5341742534      -10.1773246635  SOLV      3212            0.0000000000
      9749      3223  TIP3      H1              9.0790696015       12.1964842534       -9.5294046635  SOLV      3212            0.0000000000
      9750      3223  TIP3      H2              9.1212296015       10.6996942534       -9.7523646635  SOLV      3212            0.0000000000
      9751      3224  TIP3      OH2             3.8902596015       10.4302542534       -6.1941846635  SOLV      3213            0.0000000000
      9752      3224  TIP3      H1              3.5790096015       11.2125742534       -5.7388646635  SOLV      3213            0.0000000000
      9753      3224  TIP3      H2              3.2402796015       10.2771642534       -6.8799846635  SOLV      3213            0.0000000000
      9754      3225  TIP3      OH2             9.8692196015        5.7940942534      -18.7422546635  SOLV      3214            0.0000000000
      9755      3225  TIP3      H1             10.4487696015        5.9441242534      -17.9953646635  SOLV      3214            0.0000000000
      9756      3225  TIP3      H2             10.2832196015        6.2648342534      -19.4656146635  SOLV      3214            0.0000000000
      9757      3226  TIP3      OH2             0.8102496015        6.6283642534       -6.9656146635  SOLV      3215            0.0000000000
      9758      3226  TIP3      H1              0.8805696015        7.2790442534       -6.2671146635  SOLV      3215            0.0000000000
      9759      3226  TIP3      H2             -0.0805303985        6.7311142534       -7.3005246635  SOLV      3215            0.0000000000
      9760      3227  TIP3      OH2             7.5957096015       12.5309442534      -15.3069446635  SOLV      3216            0.0000000000
      9761      3227  TIP3      H1              8.0694696015       12.8265742534      -14.5295246635  SOLV      3216            0.0000000000
      9762      3227  TIP3      H2              7.0326396015       13.2691042534      -15.5399846635  SOLV      3216            0.0000000000
      9763      3228  TIP3      OH2             2.1298496015       12.5017542534       -5.4308046635  SOLV      3217            0.0000000000
      9764      3228  TIP3      H1              2.1373796015       12.3657242534       -6.3782546635  SOLV      3217            0.0000000000
      9765      3228  TIP3      H2              1.2138896015       12.3845642534       -5.1788046635  SOLV      3217            0.0000000000
      9766      3229  TIP3      OH2            13.5680596015       -2.4558657466      -18.9292846635  SOLV      3218            0.0000000000
      9767      3229  TIP3      H1             12.6681296015       -2.3169657466      -18.6342246635  SOLV      3218            0.0000000000
      9768      3229  TIP3      H2             13.8198996015       -1.6244057466      -19.3311146635  SOLV      3218            0.0000000000
      9769      3230  TIP3      OH2             1.6339096015        6.3318542534      -16.9555946635  SOLV      3219            0.0000000000
      9770      3230  TIP3      H1              1.3420396015        7.1000242534      -17.4464646635  SOLV      3219            0.0000000000
      9771      3230  TIP3      H2              0.9594296015        5.6724742534      -17.1184546635  SOLV      3219            0.0000000000
      9772      3231  TIP3      OH2            14.7571996015       11.9103742534      -20.5528946635  SOLV      3220            0.0000000000
      9773      3231  TIP3      H1             14.8305496015       12.8493942534      -20.3823646635  SOLV      3220            0.0000000000
      9774      3231  TIP3      H2             15.6627096015       11.6052342534      -20.6091646635  SOLV      3220            0.0000000000
      9775      3232  TIP3      OH2            -2.2730803985        8.6947742534       -8.1406146635  SOLV      3221            0.0000000000
      9776      3232  TIP3      H1             -2.7742403985        8.6667142534       -8.9556446635  SOLV      3221            0.0000000000
      9777      3232  TIP3      H2             -2.2677103985        7.7890942534       -7.8308846635  SOLV      3221            0.0000000000
      9778      3233  TIP3      OH2            -2.5228103985       11.4751542534      -11.2565946635  SOLV      3222            0.0000000000
      9779      3233  TIP3      H1             -1.5767503985       11.3308542534      -11.2756446635  SOLV      3222            0.0000000000
      9780      3233  TIP3      H2             -2.6351803985       12.2594342534      -10.7194746635  SOLV      3222            0.0000000000
      9781      3234  TIP3      OH2            15.6750396015       12.1411242534       -5.5742246635  SOLV      3223            0.0000000000
      9782      3234  TIP3      H1             15.6257196015       11.1859342534       -5.6114646635  SOLV      3223            0.0000000000
      9783      3234  TIP3      H2             14.8482696015       12.4086542534       -5.1728446635  SOLV      3223            0.0000000000
      9784      3235  TIP3      OH2             6.6534396015       11.7150442534       -6.6980846635  SOLV      3224            0.0000000000
      9785      3235  TIP3      H1              6.7408996015       12.5415042534       -6.2231746635  SOLV      3224            0.0000000000
      9786      3235  TIP3      H2              5.7899496015       11.3854242534       -6.4491546635  SOLV      3224            0.0000000000
      9787      3236  TIP3      OH2             7.0680196015       15.4874142534      -16.8920246635  SOLV      3225            0.0000000000
      9788      3236  TIP3      H1              6.9926196015       15.3661342534      -17.8385046635  SOLV      3225            0.0000000000
      9789      3236  TIP3      H2              7.1008896015       16.4366842534      -16.7735646635  SOLV      3225            0.0000000000
      9790      3237  TIP3      OH2             0.7213996015       14.2761142534      -15.1111246635  SOLV      3226            0.0000000000
      9791      3237  TIP3      H1              0.8734396015       13.9281542534      -14.2324746635  SOLV      3226            0.0000000000
      9792      3237  TIP3      H2             -0.1295603985       13.9198442534      -15.3664046635  SOLV      3226            0.0000000000
      9793      3238  TIP3      OH2            10.1696196015       14.6414342534      -19.8897846635  SOLV      3227            0.0000000000
      9794      3238  TIP3      H1             10.5444596015       13.8970442534      -20.3605246635  SOLV      3227            0.0000000000
      9795      3238  TIP3      H2             10.1739896015       14.3714942534      -18.9714546635  SOLV      3227            0.0000000000
      9796      3239  TIP3      OH2             9.8384296015       14.5671442534      -17.1405646635  SOLV      3228            0.0000000000
      9797      3239  TIP3      H1              8.9034096015       14.6673342534      -16.9618646635  SOLV      3228            0.0000000000
      9798      3239  TIP3      H2             10.1186196015       13.8577442534      -16.5622446635  SOLV      3228            0.0000000000
      9799      3240  TIP3      OH2            12.8270196015        3.6343742534       -5.0940046635  SOLV      3229            0.0000000000
      9800      3240  TIP3      H1             12.4196996015        4.1149342534       -5.8146746635  SOLV      3229            0.0000000000
      9801      3240  TIP3      H2             12.8675896015        2.7289742534       -5.4019246635  SOLV      3229            0.0000000000
      9802      3241  TIP3      OH2            -0.0240303985       10.0183142534       -7.0973346635  SOLV      3230            0.0000000000
      9803      3241  TIP3      H1              0.1920996015        9.6568742534       -6.2377546635  SOLV      3230            0.0000000000
      9804      3241  TIP3      H2             -0.8795603985        9.6436942534       -7.3069846635  SOLV      3230            0.0000000000
      9805      3242  TIP3      OH2             2.5947696015       -1.5116357466      -11.1019146635  SOLV      3231            0.0000000000
      9806      3242  TIP3      H1              1.7331396015       -1.5988157466      -11.5096246635  SOLV      3231            0.0000000000
      9807      3242  TIP3      H2              2.5723396015       -0.6556257466      -10.6741546635  SOLV      3231            0.0000000000
      9808      3243  TIP3      OH2             7.2575496015       -1.7895957466       -7.7272146635  SOLV      3232            0.0000000000
      9809      3243  TIP3      H1              7.6778596015       -2.2048857466       -6.9741546635  SOLV      3232            0.0000000000
      9810      3243  TIP3      H2              6.3245096015       -1.9682657466       -7.6100146635  SOLV      3232            0.0000000000
      9811      3244  TIP3      OH2            10.5840396015        1.9659242534       -6.8737646635  SOLV      3233            0.0000000000
      9812      3244  TIP3      H1             10.0699896015        1.8401442534       -6.0761646635  SOLV      3233            0.0000000000
      9813      3244  TIP3      H2             10.4285096015        2.8782342534       -7.1181446635  SOLV      3233            0.0000000000
      9814      3245  TIP3      OH2            11.3465296015        6.8269242534      -21.1124646635  SOLV      3234            0.0000000000
      9815      3245  TIP3      H1             11.3886096015        6.6043142534      -22.0424646635  SOLV      3234            0.0000000000
      9816      3245  TIP3      H2             12.1957396015        7.2256342534      -20.9224746635  SOLV      3234            0.0000000000
      9817      3246  TIP3      OH2             6.9192796015        0.7027442534      -20.4421346635  SOLV      3235            0.0000000000
      9818      3246  TIP3      H1              6.6657596015        0.7219042534      -19.5193246635  SOLV      3235            0.0000000000
      9819      3246  TIP3      H2              6.6624896015       -0.1687157466      -20.7435146635  SOLV      3235            0.0000000000
      9820      3247  TIP3      OH2             2.6857796015        3.4538142534      -10.0068946635  SOLV      3236            0.0000000000
      9821      3247  TIP3      H1              2.0439896015        3.4135442534       -9.2978846635  SOLV      3236            0.0000000000
      9822      3247  TIP3      H2              2.7229796015        4.3802842534      -10.2445946635  SOLV      3236            0.0000000000
      9823      3248  TIP3      OH2             2.6826896015        3.6748242534      -15.0948946635  SOLV      3237            0.0000000000
      9824      3248  TIP3      H1              1.7899796015        3.3344342534      -15.1535146635  SOLV      3237            0.0000000000
      9825      3248  TIP3      H2              3.1333496015        3.2979142534      -15.8505746635  SOLV      3237            0.0000000000
      9826      3249  TIP3      OH2             8.2182396015        4.0908542534      -16.2778146635  SOLV      3238            0.0000000000
      9827      3249  TIP3      H1              7.8092696015        4.9057142534      -16.5693346635  SOLV      3238            0.0000000000
      9828      3249  TIP3      H2              8.9388596015        3.9508642534      -16.8921046635  SOLV      3238            0.0000000000
      9829      3250  TIP3      OH2             7.3203996015        4.2664942534       -4.7897446635  SOLV      3239            0.0000000000
      9830      3250  TIP3      H1              6.7577796015        3.5616542534       -4.4689646635  SOLV      3239            0.0000000000
      9831      3250  TIP3      H2              8.1467396015        4.1456842534       -4.3219846635  SOLV      3239            0.0000000000
      9832      3251  TIP3      OH2             9.2230096015        3.5368942534      -13.4638446635  SOLV      3240            0.0000000000
      9833      3251  TIP3      H1              9.0274596015        4.1425742534      -14.1787846635  SOLV      3240            0.0000000000
      9834      3251  TIP3      H2              9.4042696015        2.7034142534      -13.8982146635  SOLV      3240            0.0000000000
      9835      3252  TIP3      OH2             0.4358296015        3.7741642534       -8.1396946635  SOLV      3241            0.0000000000
      9836      3252  TIP3      H1              0.3977696015        4.1743242534       -7.2709846635  SOLV      3241            0.0000000000
      9837      3252  TIP3      H2             -0.0550603985        2.9574042534       -8.0494046635  SOLV      3241            0.0000000000
      9838      3253  TIP3      OH2             3.8015696015        1.1483942534      -21.3410946635  SOLV      3242            0.0000000000
      9839      3253  TIP3      H1              3.3706396015        0.7034042534      -20.6113546635  SOLV      3242            0.0000000000
      9840      3253  TIP3      H2              3.0834396015        1.5200242534      -21.8533446635  SOLV      3242            0.0000000000
      9841      3254  TIP3      OH2            -2.9560903985        0.8903442534      -14.2892246635  SOLV      3243            0.0000000000
      9842      3254  TIP3      H1             -2.3253203985        0.8615542534      -13.5698346635  SOLV      3243            0.0000000000
      9843      3254  TIP3      H2             -2.5066603985        0.4652142534      -15.0196346635  SOLV      3243            0.0000000000
      9844      3255  TIP3      OH2            -1.6818803985        1.6365442534      -18.8651846635  SOLV      3244            0.0000000000
      9845      3255  TIP3      H1             -1.2077103985        2.2275342534      -19.4500946635  SOLV      3244            0.0000000000
      9846      3255  TIP3      H2             -2.3992403985        2.1668342534      -18.5181746635  SOLV      3244            0.0000000000
      9847      3256  TIP3      OH2             8.4869296015        5.1750242534       -8.7926046635  SOLV      3245            0.0000000000
      9848      3256  TIP3      H1              8.8104096015        4.5439942534       -9.4355546635  SOLV      3245            0.0000000000
      9849      3256  TIP3      H2              8.0468596015        4.6402442534       -8.1318646635  SOLV      3245            0.0000000000
      9850      3257  TIP3      OH2             5.2642196015        1.1025742534      -14.0084846635  SOLV      3246            0.0000000000
      9851      3257  TIP3      H1              4.3533296015        1.1592542534      -13.7198846635  SOLV      3246            0.0000000000
      9852      3257  TIP3      H2              5.7695096015        1.0421242534      -13.1977646635  SOLV      3246            0.0000000000
      9853      3258  TIP3      OH2             0.0925596015        2.7312042534      -15.1817246635  SOLV      3247            0.0000000000
      9854      3258  TIP3      H1             -0.7966403985        2.8307542534      -15.5217646635  SOLV      3247            0.0000000000
      9855      3258  TIP3      H2              0.3890496015        1.8895042534      -15.5279346635  SOLV      3247            0.0000000000
      9856      3259  TIP3      OH2             3.7457396015        2.7314642534      -17.5252646635  SOLV      3248            0.0000000000
      9857      3259  TIP3      H1              4.6772896015        2.8604642534      -17.3469546635  SOLV      3248            0.0000000000
      9858      3259  TIP3      H2              3.5307696015        3.4008942534      -18.1747946635  SOLV      3248            0.0000000000
      9859      3260  TIP3      OH2             9.6694096015        0.3372042534      -10.7443046635  SOLV      3249            0.0000000000
      9860      3260  TIP3      H1              8.9925696015        0.4685142534      -10.0803346635  SOLV      3249            0.0000000000
      9861      3260  TIP3      H2              9.1838996015        0.1821542534      -11.5545346635  SOLV      3249            0.0000000000
      9862      3261  TIP3      OH2             2.4197596015        3.9256842534      -19.9586546635  SOLV      3250            0.0000000000
      9863      3261  TIP3      H1              1.8772696015        3.5460642534      -20.6498946635  SOLV      3250            0.0000000000
      9864      3261  TIP3      H2              3.2532496015        4.1201542534      -20.3872446635  SOLV      3250            0.0000000000
      9865      3262  TIP3      OH2            12.9569196015       16.0087442534       -4.4675446635  SOLV      3251            0.0000000000
      9866      3262  TIP3      H1             13.1567896015       16.4329342534       -5.3020146635  SOLV      3251            0.0000000000
      9867      3262  TIP3      H2             13.6122896015       16.3525642534       -3.8605046635  SOLV      3251            0.0000000000
      9868      3263  TIP3      OH2             0.5548996015        8.4828742534       -4.8594946635  SOLV      3252            0.0000000000
      9869      3263  TIP3      H1              1.2871396015        8.7374642534       -4.2980446635  SOLV      3252            0.0000000000
      9870      3263  TIP3      H2             -0.2252303985        8.6874142534       -4.3439546635  SOLV      3252            0.0000000000
      9871      3264  TIP3      OH2             6.5841896015        3.8898742534      -12.1215246635  SOLV      3253            0.0000000000
      9872      3264  TIP3      H1              7.1485296015        3.3435342534      -12.6685646635  SOLV      3253            0.0000000000
      9873      3264  TIP3      H2              6.4365296015        3.3680642534      -11.3327646635  SOLV      3253            0.0000000000
      9874      3265  TIP3      OH2             1.5861596015        0.0264842534      -15.7030446635  SOLV      3254            0.0000000000
      9875      3265  TIP3      H1              1.2691096015       -0.8759857466      -15.7385046635  SOLV      3254            0.0000000000
      9876      3265  TIP3      H2              2.3675696015        0.0282242534      -16.2558846635  SOLV      3254            0.0000000000
      9877      3266  TIP3      OH2             5.2107796015        2.2784842534       -9.7074846635  SOLV      3255            0.0000000000
      9878      3266  TIP3      H1              4.3753096015        2.7324342534       -9.5972446635  SOLV      3255            0.0000000000
      9879      3266  TIP3      H2              5.7348396015        2.5543342534       -8.9554946635  SOLV      3255            0.0000000000
      9880      3267  TIP3      OH2             5.7550396015        8.4912542534      -18.0228446635  SOLV      3256            0.0000000000
      9881      3267  TIP3      H1              5.0101396015        7.9837842534      -18.3450546635  SOLV      3256            0.0000000000
      9882      3267  TIP3      H2              5.6207596015        8.5400542534      -17.0763646635  SOLV      3256            0.0000000000
      9883      3268  TIP3      OH2            12.9049296015        7.6240742534       -9.2360846635  SOLV      3257            0.0000000000
      9884      3268  TIP3      H1             13.5468096015        8.0807042534       -9.7798646635  SOLV      3257            0.0000000000
      9885      3268  TIP3      H2             12.0746196015        7.7373142534       -9.6986746635  SOLV      3257            0.0000000000
      9886      3269  TIP3      OH2             9.6527196015        1.3052442534      -19.8235846635  SOLV      3258            0.0000000000
      9887      3269  TIP3      H1              8.7141396015        1.4168042534      -19.9747046635  SOLV      3258            0.0000000000
      9888      3269  TIP3      H2              9.9499296015        2.1619342534      -19.5170146635  SOLV      3258            0.0000000000
      9889      3270  TIP3      OH2             7.2742496015        8.6755842534       -6.7859346635  SOLV      3259            0.0000000000
      9890      3270  TIP3      H1              6.9288596015        8.2938242534       -5.9789746635  SOLV      3259            0.0000000000
      9891      3270  TIP3      H2              7.0742596015        9.6089442534       -6.7146446635  SOLV      3259            0.0000000000
      9892      3271  TIP3      OH2            10.3710696015        3.1725142534      -18.1628446635  SOLV      3260            0.0000000000
      9893      3271  TIP3      H1             11.2629696015        3.0350142534      -17.8437246635  SOLV      3260            0.0000000000
      9894      3271  TIP3      H2             10.4274296015        3.9631242534      -18.6994946635  SOLV      3260            0.0000000000
      9895      3272  TIP3      OH2             0.8798696015        7.7862542534      -12.2530546635  SOLV      3261            0.0000000000
      9896      3272  TIP3      H1              1.6245896015        7.7838242534      -12.8544046635  SOLV      3261            0.0000000000
      9897      3272  TIP3      H2              0.9575296015        6.9626342534      -11.7715446635  SOLV      3261            0.0000000000
      9898      3273  TIP3      OH2             7.8804496015        9.9496842534      -18.9973846635  SOLV      3262            0.0000000000
      9899      3273  TIP3      H1              7.5852896015       10.7764742534      -18.6159046635  SOLV      3262            0.0000000000
      9900      3273  TIP3      H2              7.1774496015        9.3303742534      -18.8012446635  SOLV      3262            0.0000000000
      9901      3274  TIP3      OH2            -2.1121603985        6.2469442534       -6.9382046635  SOLV      3263            0.0000000000
      9902      3274  TIP3      H1             -1.8893003985        5.8289042534       -6.1064546635  SOLV      3263            0.0000000000
      9903      3274  TIP3      H2             -2.7141503985        5.6344442534       -7.3609246635  SOLV      3263            0.0000000000
      9904      3275  TIP3      OH2             4.9043296015        5.7639342534       -4.7252346635  SOLV      3264            0.0000000000
      9905      3275  TIP3      H1              4.6084096015        5.5982342534       -5.6203246635  SOLV      3264            0.0000000000
      9906      3275  TIP3      H2              5.8358496015        5.5439642534       -4.7358446635  SOLV      3264            0.0000000000
      9907      3276  TIP3      OH2             9.5246096015       11.1371342534       -6.8354346635  SOLV      3265            0.0000000000
      9908      3276  TIP3      H1              8.6240396015       11.3203942534       -7.1030446635  SOLV      3265            0.0000000000
      9909      3276  TIP3      H2              9.5587196015       11.3960642534       -5.9145546635  SOLV      3265            0.0000000000
      9910      3277  TIP3      OH2            15.2559396015        3.3819242534      -18.4681746635  SOLV      3266            0.0000000000
      9911      3277  TIP3      H1             14.7015696015        2.9857242534      -19.1404246635  SOLV      3266            0.0000000000
      9912      3277  TIP3      H2             15.3562996015        4.2924442534      -18.7458446635  SOLV      3266            0.0000000000
      9913      3278  TIP3      OH2            15.2191396015        9.1820942534       -5.6310246635  SOLV      3267            0.0000000000
      9914      3278  TIP3      H1             14.3679896015        9.4204742534       -5.9983846635  SOLV      3267            0.0000000000
      9915      3278  TIP3      H2             15.8094796015        9.1654142534       -6.3843146635  SOLV      3267            0.0000000000
      9916      3279  TIP3      OH2            13.5511096015       12.1679642534      -18.0029646635  SOLV      3268            0.0000000000
      9917      3279  TIP3      H1             13.1782196015       11.3423442534      -17.6939046635  SOLV      3268            0.0000000000
      9918      3279  TIP3      H2             13.8284596015       11.9849042534      -18.9006246635  SOLV      3268            0.0000000000
      9919      3280  TIP3      OH2            10.7114996015        6.9759142534      -10.9817746635  SOLV      3269            0.0000000000
      9920      3280  TIP3      H1              9.7831896015        6.7441042534      -11.0088446635  SOLV      3269            0.0000000000
      9921      3280  TIP3      H2             11.1626096015        6.1988942534      -11.3118946635  SOLV      3269            0.0000000000
      9922      3281  TIP3      OH2             3.2548096015       11.3040742534      -14.8489046635  SOLV      3270            0.0000000000
      9923      3281  TIP3      H1              3.7820296015       12.0775142534      -15.0490246635  SOLV      3270            0.0000000000
      9924      3281  TIP3      H2              2.3746596015       11.5289942534      -15.1505046635  SOLV      3270            0.0000000000
      9925      3282  TIP3      OH2            -0.9904203985        6.1664842534      -20.2616646635  SOLV      3271            0.0000000000
      9926      3282  TIP3      H1             -0.3744303985        6.7932042534      -19.8821846635  SOLV      3271            0.0000000000
      9927      3282  TIP3      H2             -1.8521603985        6.4824642534      -19.9900146635  SOLV      3271            0.0000000000
      9928      3283  TIP3      OH2             4.6820396015        8.9670642534      -15.2724746635  SOLV      3272            0.0000000000
      9929      3283  TIP3      H1              4.4410396015        9.8925042534      -15.2309446635  SOLV      3272            0.0000000000
      9930      3283  TIP3      H2              3.9413996015        8.5081942534      -14.8760846635  SOLV      3272            0.0000000000
      9931      3284  TIP3      OH2             5.1966996015       13.1164242534       -8.9573646635  SOLV      3273            0.0000000000
      9932      3284  TIP3      H1              5.5591696015       13.9709842534       -9.1909246635  SOLV      3273            0.0000000000
      9933      3284  TIP3      H2              5.7282196015       12.8245842534       -8.2167346635  SOLV      3273            0.0000000000
      9934      3285  TIP3      OH2             3.3651196015       13.9888242534      -15.7272546635  SOLV      3274            0.0000000000
      9935      3285  TIP3      H1              2.4151696015       14.0945642534      -15.6759246635  SOLV      3274            0.0000000000
      9936      3285  TIP3      H2              3.7169296015       14.8095642534      -15.3825046635  SOLV      3274            0.0000000000
      9937      3286  TIP3      OH2             8.7407796015        9.2154942534       -9.2568046635  SOLV      3275            0.0000000000
      9938      3286  TIP3      H1              8.3149096015        8.9876642534       -8.4304046635  SOLV      3275            0.0000000000
      9939      3286  TIP3      H2              9.3213596015        8.4766742534       -9.4392746635  SOLV      3275            0.0000000000
      9940      3287  TIP3      OH2            10.9436696015       10.1445442534      -20.1829046635  SOLV      3276            0.0000000000
      9941      3287  TIP3      H1             11.2969796015        9.7645242534      -19.3785546635  SOLV      3276            0.0000000000
      9942      3287  TIP3      H2              9.9950196015       10.0510242534      -20.0959746635  SOLV      3276            0.0000000000
      9943      3288  TIP3      OH2            11.3991996015       13.7674442534       -6.7873246635  SOLV      3277            0.0000000000
      9944      3288  TIP3      H1             10.7975196015       13.2117342534       -7.2826946635  SOLV      3277            0.0000000000
      9945      3288  TIP3      H2             11.6805696015       14.4344242534       -7.4135846635  SOLV      3277            0.0000000000
      9946      3289  TIP3      OH2            15.4471096015       14.6237942534      -19.9818846635  SOLV      3278            0.0000000000
      9947      3289  TIP3      H1             16.1908996015       15.2098442534      -20.1217246635  SOLV      3278            0.0000000000
      9948      3289  TIP3      H2             14.7529196015       15.1923742534      -19.6486446635  SOLV      3278            0.0000000000
      9949      3290  TIP3      OH2            -0.4782103985        1.0002142534       -7.3800646635  SOLV      3279            0.0000000000
      9950      3290  TIP3      H1             -1.3709803985        1.3387542534       -7.4476646635  SOLV      3279            0.0000000000
      9951      3290  TIP3      H2             -0.5769303985        0.1448242534       -6.9619846635  SOLV      3279            0.0000000000
      9952      3291  TIP3      OH2            11.8095996015        8.8167442534      -17.9561146635  SOLV      3280            0.0000000000
      9953      3291  TIP3      H1             11.5323596015        8.0886742534      -17.4000046635  SOLV      3280            0.0000000000
      9954      3291  TIP3      H2             12.7368996015        8.9359442534      -17.7508546635  SOLV      3280            0.0000000000
      9955      3292  TIP3      OH2            -0.8270103985       12.8046542534       -8.9451246635  SOLV      3281            0.0000000000
      9956      3292  TIP3      H1             -0.6099803985       11.8728942534       -8.9761546635  SOLV      3281            0.0000000000
      9957      3292  TIP3      H2             -0.5806603985       13.0791542534       -8.0618446635  SOLV      3281            0.0000000000
      9958      3293  TIP3      OH2             5.0344496015       11.2561542534      -21.7359046635  SOLV      3282            0.0000000000
      9959      3293  TIP3      H1              5.2734296015       10.5079642534      -22.2830146635  SOLV      3282            0.0000000000
      9960      3293  TIP3      H2              4.7655796015       10.8683242534      -20.9031246635  SOLV      3282            0.0000000000
      9961      3294  TIP3      OH2             3.9715096015       10.8265342534      -19.2796446635  SOLV      3283            0.0000000000
      9962      3294  TIP3      H1              4.1183096015       10.3065142534      -18.4895546635  SOLV      3283            0.0000000000
      9963      3294  TIP3      H2              3.9686796015       11.7332942534      -18.9730546635  SOLV      3283            0.0000000000
      9964      3295  TIP3      OH2             0.4246196015        8.0788642534      -18.7691046635  SOLV      3284            0.0000000000
      9965      3295  TIP3      H1             -0.2614503985        8.4311142534      -18.2021346635  SOLV      3284            0.0000000000
      9966      3295  TIP3      H2              0.9474096015        8.8418242534      -19.0156746635  SOLV      3284            0.0000000000
      9967      3296  TIP3      OH2             8.2561296015        0.7412442534       -8.4902046635  SOLV      3285            0.0000000000
      9968      3296  TIP3      H1              8.9549196015        0.8151142534       -7.8402346635  SOLV      3285            0.0000000000
      9969      3296  TIP3      H2              7.8752696015       -0.1232557466       -8.3359146635  SOLV      3285            0.0000000000
      9970      3297  TIP3      OH2             9.0406196015        0.3934142534      -17.3929746635  SOLV      3286            0.0000000000
      9971      3297  TIP3      H1              9.2604496015        0.8649542534      -18.1964346635  SOLV      3286            0.0000000000
      9972      3297  TIP3      H2              9.5990196015        0.7876742534      -16.7229146635  SOLV      3286            0.0000000000
      9973      3298  TIP3      OH2             6.7092296015       12.5238942534      -18.5302246635  SOLV      3287            0.0000000000
      9974      3298  TIP3      H1              5.8928396015       13.0208642534      -18.4777946635  SOLV      3287            0.0000000000
      9975      3298  TIP3      H2              7.2388596015       12.9992442534      -19.1703446635  SOLV      3287            0.0000000000
      9976      3299  TIP3      OH2             6.2406096015        2.1212942534      -16.5581346635  SOLV      3288            0.0000000000
      9977      3299  TIP3      H1              7.0528696015        2.6256142534      -16.5119646635  SOLV      3288            0.0000000000
      9978      3299  TIP3      H2              5.9959096015        1.9762642534      -15.6441746635  SOLV      3288            0.0000000000
      9979      3300  TIP3      OH2             6.7762496015        3.1075642534       -7.3734746635  SOLV      3289            0.0000000000
      9980      3300  TIP3      H1              6.8952796015        3.6811042534       -6.6164346635  SOLV      3289            0.0000000000
      9981      3300  TIP3      H2              7.4317096015        2.4195042534       -7.2586946635  SOLV      3289            0.0000000000
      9982      3301  TIP3      OH2             7.1242796015       -0.7974057466      -15.6200246635  SOLV      3290            0.0000000000
      9983      3301  TIP3      H1              6.7776296015       -0.1803457466      -14.9755946635  SOLV      3290            0.0000000000
      9984      3301  TIP3      H2              7.7829696015       -0.2968357466      -16.1014746635  SOLV      3290            0.0000000000
      9985      3302  TIP3      OH2             4.0475396015       13.5676142534      -18.5485346635  SOLV      3291            0.0000000000
      9986      3302  TIP3      H1              4.2084096015       14.3673642534      -19.0492746635  SOLV      3291            0.0000000000
      9987      3302  TIP3      H2              3.8503196015       13.8742142534      -17.6634746635  SOLV      3291            0.0000000000
      9988      3303  TIP3      OH2             2.7819796015        0.2655342534      -18.9327746635  SOLV      3292            0.0000000000
      9989      3303  TIP3      H1              2.6984596015        1.1538442534      -18.5861346635  SOLV      3292            0.0000000000
      9990      3303  TIP3      H2              3.6720096015        0.0002042534      -18.7010946635  SOLV      3292            0.0000000000
      9991      3304  TIP3      OH2            12.9808296015        1.0145942534       -6.5385046635  SOLV      3293            0.0000000000
      9992      3304  TIP3      H1             12.0644096015        1.2767642534       -6.6261346635  SOLV      3293            0.0000000000
      9993      3304  TIP3      H2             13.3163296015        1.0114942534       -7.4349746635  SOLV      3293            0.0000000000
      9994      3305  TIP3      OH2            11.5829296015        4.7646942534      -12.4427746635  SOLV      3294            0.0000000000
      9995      3305  TIP3      H1             10.7853696015        4.3497142534      -12.7712746635  SOLV      3294            0.0000000000
      9996      3305  TIP3      H2             12.0280396015        4.0740642534      -11.9517246635  SOLV      3294            0.0000000000
      9997      3306  TIP3      OH2             1.0405096015       10.6927542534      -19.8723246635  SOLV      3295            0.0000000000
      9998      3306  TIP3      H1              1.6326596015       11.3922342534      -19.5960846635  SOLV      3295            0.0000000000
      9999      3306  TIP3      H2              1.4998096015       10.2597042534      -20.5918646635  SOLV      3295            0.0000000000
     10000      3307  TIP3      OH2            -0.6435703985        3.3570542534      -20.7563846635  SOLV      3296            0.0000000000
     10001      3307  TIP3      H1             -0.6883103985        4.2963642534      -20.5776846635  SOLV      3296            0.0000000000
     10002      3307  TIP3      H2             -1.5312503985        3.1215442534      -21.0261746635  SOLV      3296            0.0000000000
     10003      3308  TIP3      OH2            12.6693896015       14.0209442534      -10.8204246635  SOLV      3297            0.0000000000
     10004      3308  TIP3      H1             12.5138196015       14.6993842534      -11.4774946635  SOLV      3297            0.0000000000
     10005      3308  TIP3      H2             13.6020296015       14.0928742534      -10.6173646635  SOLV      3297            0.0000000000
     10006      3309  TIP3      OH2             0.1646296015       -1.8612857466      -12.0832846635  SOLV      3298            0.0000000000
     10007      3309  TIP3      H1             -0.0643903985       -1.8020357466      -13.0107846635  SOLV      3298            0.0000000000
     10008      3309  TIP3      H2             -0.2780303985       -2.6527357466      -11.7768746635  SOLV      3298            0.0000000000
     10009      3310  TIP3      OH2            -0.9050403985       12.0794242534      -15.9227046635  SOLV      3299            0.0000000000
     10010      3310  TIP3      H1             -1.7371803985       12.5516942534      -15.8955646635  SOLV      3299            0.0000000000
     10011      3310  TIP3      H2             -0.3592103985       12.5891842534      -16.5213946635  SOLV      3299            0.0000000000
     10012      3311  TIP3      OH2            -1.6166703985       14.6917942534       -4.5929046635  SOLV      3300            0.0000000000
     10013      3311  TIP3      H1             -1.0764503985       14.4751942534       -3.8329846635  SOLV      3300            0.0000000000
     10014      3311  TIP3      H2             -2.0978703985       13.8863942534       -4.7826546635  SOLV      3300            0.0000000000
     10015      3312  TIP3      OH2             2.9806696015       13.6112342534       -2.9724846635  SOLV      3301            0.0000000000
     10016      3312  TIP3      H1              3.7483896015       13.1523142534       -2.6315646635  SOLV      3301            0.0000000000
     10017      3312  TIP3      H2              2.9592896015       13.3852142534       -3.9023646635  SOLV      3301            0.0000000000
     10018      3313  TIP3      OH2             7.0726296015       13.1192942534      -21.5973046635  SOLV      3302            0.0000000000
     10019      3313  TIP3      H1              6.4287296015       12.4881542534      -21.2759346635  SOLV      3302            0.0000000000
     10020      3313  TIP3      H2              7.8344596015       12.5880942534      -21.8289546635  SOLV      3302            0.0000000000
     10021      3314  TIP3      OH2             9.5575396015       11.9913442534       -4.2433346635  SOLV      3303            0.0000000000
     10022      3314  TIP3      H1              9.2064896015       11.1346442534       -4.0002946635  SOLV      3303            0.0000000000
     10023      3314  TIP3      H2             10.2838596015       12.1340142534       -3.6364346635  SOLV      3303            0.0000000000
     10024      3315  TIP3      OH2            11.6769196015       12.9362842534      -21.3635046635  SOLV      3304            0.0000000000
     10025      3315  TIP3      H1             11.9599596015       12.1418042534      -20.9108146635  SOLV      3304            0.0000000000
     10026      3315  TIP3      H2             12.4167096015       13.1693842534      -21.9243946635  SOLV      3304            0.0000000000
     10027      3316  TIP3      OH2            -1.7097203985        8.5022042534       -3.6384746635  SOLV      3305            0.0000000000
     10028      3316  TIP3      H1             -1.5656703985        7.6002742534       -3.9248046635  SOLV      3305            0.0000000000
     10029      3316  TIP3      H2             -2.4819803985        8.7884142534       -4.1262446635  SOLV      3305            0.0000000000
     10030      3317  TIP3      OH2             2.6316496015        8.8457742534      -21.5060146635  SOLV      3306            0.0000000000
     10031      3317  TIP3      H1              2.6960596015        8.0517342534      -20.9753746635  SOLV      3306            0.0000000000
     10032      3317  TIP3      H2              3.2845696015        8.7270542534      -22.1958146635  SOLV      3306            0.0000000000
     10033      3318  TIP3      OH2             4.9458896015        8.4720142534       -4.2058346635  SOLV      3307            0.0000000000
     10034      3318  TIP3      H1              4.6172696015        8.7428242534       -5.0630946635  SOLV      3307            0.0000000000
     10035      3318  TIP3      H2              5.0977096015        7.5309942534       -4.2933346635  SOLV      3307            0.0000000000
     10036      3319  TIP3      OH2             7.9839896015        9.8929442534      -21.7702146635  SOLV      3308            0.0000000000
     10037      3319  TIP3      H1              7.7153996015       10.0731542534      -20.8693246635  SOLV      3308            0.0000000000
     10038      3319  TIP3      H2              7.7775496015        8.9675642534      -21.9016346635  SOLV      3308            0.0000000000
     10039      3320  TIP3      OH2            10.6804096015        8.3877442534       -6.8226046635  SOLV      3309            0.0000000000
     10040      3320  TIP3      H1             11.4258896015        8.9761142534       -6.9422046635  SOLV      3309            0.0000000000
     10041      3320  TIP3      H2              9.9230896015        8.9697142534       -6.7592946635  SOLV      3309            0.0000000000
     10042      3321  TIP3      OH2            -0.8770703985        5.7025342534       -4.2185446635  SOLV      3310            0.0000000000
     10043      3321  TIP3      H1             -0.4689503985        4.8451942534       -4.3394846635  SOLV      3310            0.0000000000
     10044      3321  TIP3      H2             -1.1373103985        5.7166642534       -3.2975146635  SOLV      3310            0.0000000000
     10045      3322  TIP3      OH2             3.7810296015        6.8183942534      -19.2002146635  SOLV      3311            0.0000000000
     10046      3322  TIP3      H1              3.3212296015        6.3342242534      -18.5143646635  SOLV      3311            0.0000000000
     10047      3322  TIP3      H2              4.0358996015        6.1499342534      -19.8361646635  SOLV      3311            0.0000000000
     10048      3323  TIP3      OH2             3.0699596015        4.7111042534       -6.8442546635  SOLV      3312            0.0000000000
     10049      3323  TIP3      H1              2.4515696015        5.3857642534       -6.5637846635  SOLV      3312            0.0000000000
     10050      3323  TIP3      H2              3.4140796015        5.0324942534       -7.6776346635  SOLV      3312            0.0000000000
     10051      3324  TIP3      OH2             4.8520696015        5.0615742534      -20.9378946635  SOLV      3313            0.0000000000
     10052      3324  TIP3      H1              4.6715696015        4.9066942534      -21.8650646635  SOLV      3313            0.0000000000
     10053      3324  TIP3      H2              5.8021196015        5.1694442534      -20.8931046635  SOLV      3313            0.0000000000
     10054      3325  TIP3      OH2             8.0897796015        7.1826342534       -3.5667746635  SOLV      3314            0.0000000000
     10055      3325  TIP3      H1              9.0428996015        7.2665442534       -3.5941746635  SOLV      3314            0.0000000000
     10056      3325  TIP3      H2              7.9292396015        6.4708142534       -2.9472846635  SOLV      3314            0.0000000000
     10057      3326  TIP3      OH2            14.2418996015        7.4159942534      -21.4920846635  SOLV      3315            0.0000000000
     10058      3326  TIP3      H1             13.9683796015        6.9915442534      -22.3052546635  SOLV      3315            0.0000000000
     10059      3326  TIP3      H2             14.2813096015        8.3474442534      -21.7090446635  SOLV      3315            0.0000000000
     10060      3327  TIP3      OH2             3.4093296015        2.0661842534       -5.7619446635  SOLV      3316            0.0000000000
     10061      3327  TIP3      H1              3.5594196015        1.3373142534       -6.3639746635  SOLV      3316            0.0000000000
     10062      3327  TIP3      H2              3.4115696015        2.8433542534       -6.3207246635  SOLV      3316            0.0000000000
     10063      3328  TIP3      OH2             3.8218996015        0.4357642534       -8.2692046635  SOLV      3317            0.0000000000
     10064      3328  TIP3      H1              4.3576496015        0.8874342534       -8.9212746635  SOLV      3317            0.0000000000
     10065      3328  TIP3      H2              2.9698596015        0.3277442534       -8.6917946635  SOLV      3317            0.0000000000
     10066      3329  TIP3      OH2             5.4037396015        5.8753842534       -8.0296846635  SOLV      3318            0.0000000000
     10067      3329  TIP3      H1              6.1542196015        5.7191342534       -8.6029046635  SOLV      3318            0.0000000000
     10068      3329  TIP3      H2              5.0645696015        6.7270442534       -8.3051346635  SOLV      3318            0.0000000000
     10069      3330  TIP3      OH2             9.8193596015        3.6905642534       -3.0011546635  SOLV      3319            0.0000000000
     10070      3330  TIP3      H1             10.0114896015        2.7595042534       -3.1127046635  SOLV      3319            0.0000000000
     10071      3330  TIP3      H2             10.6769896015        4.1155142534       -3.0116146635  SOLV      3319            0.0000000000
     10072      3331  TIP3      OH2            11.1360796015        6.4790842534       -4.9238846635  SOLV      3320            0.0000000000
     10073      3331  TIP3      H1             10.8545796015        7.1885442534       -5.5015046635  SOLV      3320            0.0000000000
     10074      3331  TIP3      H2             12.0785096015        6.4063842534       -5.0747646635  SOLV      3320            0.0000000000
     10075      3332  TIP3      OH2             1.8879596015        3.2645342534       -3.8503846635  SOLV      3321            0.0000000000
     10076      3332  TIP3      H1              1.1208596015        2.7320142534       -4.0606246635  SOLV      3321            0.0000000000
     10077      3332  TIP3      H2              2.5668596015        2.9545742534       -4.4497546635  SOLV      3321            0.0000000000
     10078      3333  TIP3      OH2             4.6274496015       -2.1076657466       -7.8378446635  SOLV      3322            0.0000000000
     10079      3333  TIP3      H1              4.5294096015       -1.1613457466       -7.9432246635  SOLV      3322            0.0000000000
     10080      3333  TIP3      H2              3.8850696015       -2.4802857466       -8.3134946635  SOLV      3322            0.0000000000
     10081      3334  TIP3      OH2             5.8914996015        2.2138742534       -4.2740046635  SOLV      3323            0.0000000000
     10082      3334  TIP3      H1              5.6560396015        1.9945442534       -3.3725146635  SOLV      3323            0.0000000000
     10083      3334  TIP3      H2              5.1081896015        2.0069942534       -4.7837546635  SOLV      3323            0.0000000000
     10084      3335  TIP3      OH2             8.6071596015        1.3412242534       -5.1986546635  SOLV      3324            0.0000000000
     10085      3335  TIP3      H1              7.6596996015        1.3731942534       -5.0663246635  SOLV      3324            0.0000000000
     10086      3335  TIP3      H2              8.9198296015        0.7159342534       -4.5448346635  SOLV      3324            0.0000000000
     10087      3336  TIP3      OH2            10.2413096015       -0.0246657466       -3.1934646635  SOLV      3325            0.0000000000
     10088      3336  TIP3      H1             10.1444896015       -0.9769357466       -3.1992746635  SOLV      3325            0.0000000000
     10089      3336  TIP3      H2              9.9196196015        0.2440142534       -2.3329146635  SOLV      3325            0.0000000000
     10090      3337  TIP3      OH2             4.8492596015       -2.8139257466       -5.1665646635  SOLV      3326            0.0000000000
     10091      3337  TIP3      H1              5.5610996015       -3.4537057466       -5.1806546635  SOLV      3326            0.0000000000
     10092      3337  TIP3      H2              4.7482996015       -2.5470957466       -6.0802546635  SOLV      3326            0.0000000000
     10093      3338  TIP3      OH2             5.2030096015       -1.1310857466       -3.1129346635  SOLV      3327            0.0000000000
     10094      3338  TIP3      H1              5.0712296015       -1.6067057466       -3.9330846635  SOLV      3327            0.0000000000
     10095      3338  TIP3      H2              4.6037496015       -0.3867257466       -3.1682246635  SOLV      3327            0.0000000000
     10096      3339  TIP3      OH2             4.7492396015       15.7519442534      -19.9365346635  SOLV      3328            0.0000000000
     10097      3339  TIP3      H1              5.6823096015       15.9098142534      -19.7926946635  SOLV      3328            0.0000000000
     10098      3339  TIP3      H2              4.4851196015       16.4272442534      -20.5613846635  SOLV      3328            0.0000000000
     10099      3340  TIP3      OH2            -1.6822703985       10.3883242534      -20.4537246635  SOLV      3329            0.0000000000
     10100      3340  TIP3      H1             -0.7683503985       10.4672142534      -20.1803346635  SOLV      3329            0.0000000000
     10101      3340  TIP3      H2             -1.6749603985        9.7012842534      -21.1201646635  SOLV      3329            0.0000000000
     10102      3341  TIP3      OH2            -3.0332103985       15.7811742534      -15.3763346635  SOLV      3330            0.0000000000
     10103      3341  TIP3      H1             -3.6805003985       15.3193442534      -15.9092146635  SOLV      3330            0.0000000000
     10104      3341  TIP3      H2             -2.6787503985       15.1095042534      -14.7937146635  SOLV      3330            0.0000000000
     10105      3342  TIP3      OH2            -2.1632903985       13.8618742534      -13.5717146635  SOLV      3331            0.0000000000
     10106      3342  TIP3      H1             -2.4976103985       12.9816042534      -13.3996946635  SOLV      3331            0.0000000000
     10107      3342  TIP3      H2             -1.9410503985       14.2073742534      -12.7071546635  SOLV      3331            0.0000000000
     10108      3343  TIP3      OH2            15.3851896015       14.6715142534      -10.5912346635  SOLV      3332            0.0000000000
     10109      3343  TIP3      H1             15.3638596015       14.8563542534       -9.6522946635  SOLV      3332            0.0000000000
     10110      3343  TIP3      H2             16.0758096015       15.2399142534      -10.9320946635  SOLV      3332            0.0000000000
     10111      3344  TIP3      OH2            14.9484796015       14.2386242534       -7.6693246635  SOLV      3333            0.0000000000
     10112      3344  TIP3      H1             14.4613496015       13.5030342534       -8.0405846635  SOLV      3333            0.0000000000
     10113      3344  TIP3      H2             15.4977496015       13.8450142534       -6.9913846635  SOLV      3333            0.0000000000
     10114      3345  TIP3      OH2            13.3992096015       10.0284342534       -3.0312946635  SOLV      3334            0.0000000000
     10115      3345  TIP3      H1             12.5333196015        9.9234042534       -2.6370646635  SOLV      3334            0.0000000000
     10116      3345  TIP3      H2             13.7757996015       10.7867642534       -2.5848246635  SOLV      3334            0.0000000000
     10117      3346  TIP3      OH2            14.7001796015        8.2848042534      -17.5170446635  SOLV      3335            0.0000000000
     10118      3346  TIP3      H1             15.5503196015        8.7058942534      -17.3898846635  SOLV      3335            0.0000000000
     10119      3346  TIP3      H2             14.7056896015        7.5448142534      -16.9099046635  SOLV      3335            0.0000000000
     10120      3347  TIP3      OH2            15.0947396015        6.3385442534      -15.6934746635  SOLV      3336            0.0000000000
     10121      3347  TIP3      H1             14.3681996015        5.8588042534      -15.2957146635  SOLV      3336            0.0000000000
     10122      3347  TIP3      H2             15.6760696015        6.5440142534      -14.9613146635  SOLV      3336            0.0000000000
     10123      3348  TIP3      OH2            14.8538596015        9.1232942534      -10.7457146635  SOLV      3337            0.0000000000
     10124      3348  TIP3      H1             15.6872796015        8.7452942534      -11.0263546635  SOLV      3337            0.0000000000
     10125      3348  TIP3      H2             14.9658896015       10.0664142534      -10.8648046635  SOLV      3337            0.0000000000
     10126      3349  TIP3      OH2            13.3400896015       12.0010442534       -8.4388746635  SOLV      3338            0.0000000000
     10127      3349  TIP3      H1             12.6926196015       12.3261942534       -7.8133546635  SOLV      3338            0.0000000000
     10128      3349  TIP3      H2             12.8224896015       11.5608142534       -9.1130446635  SOLV      3338            0.0000000000
     10129      3350  TIP3      OH2            15.3630496015        6.2393942534      -19.3023446635  SOLV      3339            0.0000000000
     10130      3350  TIP3      H1             14.8411596015        6.5958042534      -20.0212546635  SOLV      3339            0.0000000000
     10131      3350  TIP3      H2             15.3299696015        6.9141742534      -18.6242546635  SOLV      3339            0.0000000000
     10132      3351  TIP3      OH2            13.7119496015        3.4789542534      -20.7516346635  SOLV      3340            0.0000000000
     10133      3351  TIP3      H1             13.8083896015        4.1456542534      -21.4316646635  SOLV      3340            0.0000000000
     10134      3351  TIP3      H2             13.5719096015        2.6635842534      -21.2330846635  SOLV      3340            0.0000000000
     10135      3352  TIP3      OH2            12.8814196015        4.8591942534      -15.1306046635  SOLV      3341            0.0000000000
     10136      3352  TIP3      H1             12.7312996015        3.9140542534      -15.1508246635  SOLV      3341            0.0000000000
     10137      3352  TIP3      H2             12.5278696015        5.1403342534      -14.2866946635  SOLV      3341            0.0000000000
     10138      3353  TIP3      OH2            -2.0833403985        6.9374142534      -11.1202246635  SOLV      3342            0.0000000000
     10139      3353  TIP3      H1             -1.8990503985        6.8555842534      -12.0559346635  SOLV      3342            0.0000000000
     10140      3353  TIP3      H2             -1.2340503985        6.8131142534      -10.6965846635  SOLV      3342            0.0000000000
     10141      3354  TIP3      OH2            13.7377096015        6.8295242534       -5.4917746635  SOLV      3343            0.0000000000
     10142      3354  TIP3      H1             14.3204396015        6.0947542534       -5.3000546635  SOLV      3343            0.0000000000
     10143      3354  TIP3      H2             14.3016396015        7.6015542534       -5.4451946635  SOLV      3343            0.0000000000
     10144      3355  TIP3      OH2            12.9593296015        0.8869342534      -21.6340846635  SOLV      3344            0.0000000000
     10145      3355  TIP3      H1             13.5699096015        0.5156142534      -20.9972646635  SOLV      3344            0.0000000000
     10146      3355  TIP3      H2             12.1224796015        0.4656242534      -21.4380846635  SOLV      3344            0.0000000000
     10147      3356  TIP3      OH2            12.5918996015        2.4417742534      -16.6680946635  SOLV      3345            0.0000000000
     10148      3356  TIP3      H1             12.8716096015        1.5348142534      -16.5439246635  SOLV      3345            0.0000000000
     10149      3356  TIP3      H2             13.3510696015        2.8759242534      -17.0571746635  SOLV      3345            0.0000000000
     10150      3357  TIP3      OH2            13.2037296015        3.0235142534      -11.2322046635  SOLV      3346            0.0000000000
     10151      3357  TIP3      H1             14.1365296015        3.2355042534      -11.2666046635  SOLV      3346            0.0000000000
     10152      3357  TIP3      H2             12.9684796015        3.1247242534      -10.3099046635  SOLV      3346            0.0000000000
     10153      3358  TIP3      OH2            13.2329196015        3.7600442534       -8.4562646635  SOLV      3347            0.0000000000
     10154      3358  TIP3      H1             12.3900496015        4.0280842534       -8.0902846635  SOLV      3347            0.0000000000
     10155      3358  TIP3      H2             13.6753496015        4.5822342534       -8.6671546635  SOLV      3347            0.0000000000
     10156      3359  TIP3      OH2            -2.4858603985        2.2079142534       -4.9793446635  SOLV      3348            0.0000000000
     10157      3359  TIP3      H1             -1.5663703985        2.0857442534       -4.7430346635  SOLV      3348            0.0000000000
     10158      3359  TIP3      H2             -2.9354103985        1.4578842534       -4.5899946635  SOLV      3348            0.0000000000
     10159      3360  TIP3      OH2            15.5160796015       -2.2599357466       -3.1027646635  SOLV      3349            0.0000000000
     10160      3360  TIP3      H1             15.8657796015       -2.9135857466       -3.7082946635  SOLV      3349            0.0000000000
     10161      3360  TIP3      H2             15.6630296015       -1.4225257466       -3.5425046635  SOLV      3349            0.0000000000
     10162      3361  TIP3      OH2            13.2053796015       -0.2952957466      -16.6198946635  SOLV      3350            0.0000000000
     10163      3361  TIP3      H1             13.3878796015       -0.7441457466      -15.7943946635  SOLV      3350            0.0000000000
     10164      3361  TIP3      H2             12.6056696015       -0.8798557466      -17.0834346635  SOLV      3350            0.0000000000
     10165      3362  TIP3      OH2            -1.2646103985        0.5200742534      -12.0880546635  SOLV      3351            0.0000000000
     10166      3362  TIP3      H1             -0.8194503985       -0.2716757466      -11.7860846635  SOLV      3351            0.0000000000
     10167      3362  TIP3      H2             -0.7983103985        1.2365942534      -11.6574946635  SOLV      3351            0.0000000000
     10168      3363  TIP3      OH2            -2.9605803985        3.5193742534      -11.0190346635  SOLV      3352            0.0000000000
     10169      3363  TIP3      H1             -2.4686003985        3.2984242534      -11.8098346635  SOLV      3352            0.0000000000
     10170      3363  TIP3      H2             -2.5984903985        4.3597142534      -10.7380846635  SOLV      3352            0.0000000000
     10171      3364  TIP3      OH2            15.0357996015       -0.1504757466       -4.7536346635  SOLV      3353            0.0000000000
     10172      3364  TIP3      H1             14.1183696015        0.1202342534       -4.7892846635  SOLV      3353            0.0000000000
     10173      3364  TIP3      H2             15.1587396015       -0.6856357466       -5.5376646635  SOLV      3353            0.0000000000
     10174      3365  TIP3      OH2            15.0719996015       -0.2274857466      -20.0918646635  SOLV      3354            0.0000000000
     10175      3365  TIP3      H1             15.4842596015       -0.9489157466      -20.5670646635  SOLV      3354            0.0000000000
     10176      3365  TIP3      H2             15.7536496015        0.4419742534      -20.0334346635  SOLV      3354            0.0000000000
     10177      3366  TIP3      OH2            -2.6469303985       -0.2227157466      -16.9647946635  SOLV      3355            0.0000000000
     10178      3366  TIP3      H1             -3.5720903985       -0.0140557466      -17.0942446635  SOLV      3355            0.0000000000
     10179      3366  TIP3      H2             -2.1929403985        0.2613642534      -17.6545646635  SOLV      3355            0.0000000000
     10180      3367  TIP3      OH2            12.1237896015       14.7614542534      -15.0190546635  SOLV      3356            0.0000000000
     10181      3367  TIP3      H1             12.7760796015       14.4136642534      -15.6271446635  SOLV      3356            0.0000000000
     10182      3367  TIP3      H2             12.6341696015       15.2497742534      -14.3730846635  SOLV      3356            0.0000000000
     10183      3368  TIP3      OH2            -2.6833903985       -1.4848157466       -8.6205446635  SOLV      3357            0.0000000000
     10184      3368  TIP3      H1             -3.3483403985       -1.7307857466       -7.9774546635  SOLV      3357            0.0000000000
     10185      3368  TIP3      H2             -3.1262603985       -0.8627757466       -9.1977446635  SOLV      3357            0.0000000000
     10186      3369  TIP3      OH2            -0.4914603985       11.6905942534       -4.4759646635  SOLV      3358            0.0000000000
     10187      3369  TIP3      H1             -1.3122103985       11.8652442534       -4.9364946635  SOLV      3358            0.0000000000
     10188      3369  TIP3      H2             -0.7436803985       11.6170642534       -3.5555246635  SOLV      3358            0.0000000000
     10189      3370  TIP3      OH2             2.4628296015       12.6647142534       -8.2175646635  SOLV      3359            0.0000000000
     10190      3370  TIP3      H1              2.0379396015       13.4745642534       -8.5001046635  SOLV      3359            0.0000000000
     10191      3370  TIP3      H2              3.3671096015       12.7501242534       -8.5195846635  SOLV      3359            0.0000000000
     10192      3371  TIP3      OH2             6.7739696015       14.0637142534       -5.2581946635  SOLV      3360            0.0000000000
     10193      3371  TIP3      H1              6.9587196015       13.7303242534       -4.3801646635  SOLV      3360            0.0000000000
     10194      3371  TIP3      H2              7.6204196015       14.3735742534       -5.5802746635  SOLV      3360            0.0000000000
     10195      3372  TIP3      OH2             9.1190096015       15.3496042534       -6.0140546635  SOLV      3361            0.0000000000
     10196      3372  TIP3      H1              9.7958996015       14.7168342534       -6.2541346635  SOLV      3361            0.0000000000
     10197      3372  TIP3      H2              9.4408896015       15.7506542534       -5.2067246635  SOLV      3361            0.0000000000
     10198      3373  TIP3      OH2            14.0363896015       -2.0608457466       -6.9345546635  SOLV      3362            0.0000000000
     10199      3373  TIP3      H1             13.2237396015       -1.7358157466       -7.3220846635  SOLV      3362            0.0000000000
     10200      3373  TIP3      H2             14.2692396015       -2.8209957466       -7.4676446635  SOLV      3362            0.0000000000
     10201      3374  TIP3      OH2            -0.1355003985       15.9211042534       -8.1700346635  SOLV      3363            0.0000000000
     10202      3374  TIP3      H1             -0.8558603985       16.3612042534       -8.6212646635  SOLV      3363            0.0000000000
     10203      3374  TIP3      H2             -0.5011003985       15.6705742534       -7.3216346635  SOLV      3363            0.0000000000
     10204      3375  TIP3      OH2             2.3317596015       15.5214942534       -9.1403146635  SOLV      3364            0.0000000000
     10205      3375  TIP3      H1              1.4669796015       15.5933442534       -8.7363046635  SOLV      3364            0.0000000000
     10206      3375  TIP3      H2              2.2766596015       16.0682242534       -9.9240646635  SOLV      3364            0.0000000000
     10207      3376  TIP3      OH2             7.0423196015       15.4093842534       -9.9647146635  SOLV      3365            0.0000000000
     10208      3376  TIP3      H1              6.5857196015       15.9383542534      -10.6188746635  SOLV      3365            0.0000000000
     10209      3376  TIP3      H2              7.2051196015       16.0125242534       -9.2394846635  SOLV      3365            0.0000000000
     10210      3377  TIP3      OH2             9.3699496015       14.2873442534       -9.0196846635  SOLV      3366            0.0000000000
     10211      3377  TIP3      H1              8.4653196015       14.4523642534       -9.2854746635  SOLV      3366            0.0000000000
     10212      3377  TIP3      H2              9.7988096015       15.1405642534       -9.0853446635  SOLV      3366            0.0000000000
     10213      3378  TIP3      OH2            11.9741396015       15.8572542534       -8.7249046635  SOLV      3367            0.0000000000
     10214      3378  TIP3      H1             11.7923396015       16.7731442534       -8.9354146635  SOLV      3367            0.0000000000
     10215      3378  TIP3      H2             12.1509196015       15.4469642534       -9.5714446635  SOLV      3367            0.0000000000
     10216      3379  TIP3      OH2            -0.7206903985       14.5443542534      -11.2598546635  SOLV      3368            0.0000000000
     10217      3379  TIP3      H1             -0.7390903985       14.1188642534      -10.4026246635  SOLV      3368            0.0000000000
     10218      3379  TIP3      H2              0.0840996015       14.2258542534      -11.6686346635  SOLV      3368            0.0000000000
     10219      3380  TIP3      OH2             1.4206196015       13.2542242534      -12.6048646635  SOLV      3369            0.0000000000
     10220      3380  TIP3      H1              1.2016896015       12.3379642534      -12.4352646635  SOLV      3369            0.0000000000
     10221      3380  TIP3      H2              2.2448396015       13.3942642534      -12.1387246635  SOLV      3369            0.0000000000
     10222      3381  TIP3      OH2             3.9578696015       13.7241542534      -11.7560646635  SOLV      3370            0.0000000000
     10223      3381  TIP3      H1              4.1704396015       12.8360542534      -12.0429746635  SOLV      3370            0.0000000000
     10224      3381  TIP3      H2              4.0223796015       13.6899242534      -10.8016646635  SOLV      3370            0.0000000000
     10225      3382  TIP3      OH2             7.4662396015       -0.6117857466      -12.6117346635  SOLV      3371            0.0000000000
     10226      3382  TIP3      H1              6.7919196015       -1.2412257466      -12.3561546635  SOLV      3371            0.0000000000
     10227      3382  TIP3      H2              8.0301596015       -1.0958957466      -13.2149446635  SOLV      3371            0.0000000000
     10228      3383  TIP3      OH2            12.6089596015       -2.5043857466      -12.4990246635  SOLV      3372            0.0000000000
     10229      3383  TIP3      H1             13.2127196015       -1.9568457466      -13.0009246635  SOLV      3372            0.0000000000
     10230      3383  TIP3      H2             11.7391596015       -2.1853457466      -12.7396146635  SOLV      3372            0.0000000000
     10231      3384  TIP3      OH2            14.3359996015       -1.3655157466      -14.1659346635  SOLV      3373            0.0000000000
     10232      3384  TIP3      H1             14.9477496015       -1.8799457466      -14.6925746635  SOLV      3373            0.0000000000
     10233      3384  TIP3      H2             14.7183396015       -0.4883057466      -14.1424946635  SOLV      3373            0.0000000000
     10234      3385  TIP3      OH2            -0.2070103985       -1.9777557466      -14.7897446635  SOLV      3374            0.0000000000
     10235      3385  TIP3      H1             -0.9840303985       -2.2122657466      -15.2971546635  SOLV      3374            0.0000000000
     10236      3385  TIP3      H2              0.3233496015       -2.7745457466      -14.7809446635  SOLV      3374            0.0000000000
     10237      3386  TIP3      OH2            -1.3706703985       -2.1799457466      -18.9861346635  SOLV      3375            0.0000000000
     10238      3386  TIP3      H1             -0.9316003985       -1.5688957466      -19.5777846635  SOLV      3375            0.0000000000
     10239      3386  TIP3      H2             -2.0044303985       -1.6415357466      -18.5121346635  SOLV      3375            0.0000000000
     10240      3387  TIP3      OH2             4.3722496015       -2.0510457466      -14.9764346635  SOLV      3376            0.0000000000
     10241      3387  TIP3      H1              5.2465896015       -1.6626157466      -15.0060046635  SOLV      3376            0.0000000000
     10242      3387  TIP3      H2              4.2363296015       -2.2662657466      -14.0537146635  SOLV      3376            0.0000000000
     10243      3388  TIP3      OH2             9.9290896015       -2.0210657466      -13.3272646635  SOLV      3377            0.0000000000
     10244      3388  TIP3      H1             10.0052496015       -1.9259057466      -14.2766646635  SOLV      3377            0.0000000000
     10245      3388  TIP3      H2              9.6540096015       -2.9287757466      -13.1983546635  SOLV      3377            0.0000000000
     10246      3389  TIP3      OH2            11.2823496015       -1.9952857466      -17.6347646635  SOLV      3378            0.0000000000
     10247      3389  TIP3      H1             10.5794596015       -1.3803657466      -17.8446246635  SOLV      3378            0.0000000000
     10248      3389  TIP3      H2             10.8374896015       -2.8326157466      -17.5036746635  SOLV      3378            0.0000000000
     10249      3390  TIP3      OH2            -1.4697203985       13.7682742534      -18.0886246635  SOLV      3379            0.0000000000
     10250      3390  TIP3      H1             -2.1547303985       13.7301642534      -18.7561146635  SOLV      3379            0.0000000000
     10251      3390  TIP3      H2             -1.4660003985       14.6810342534      -17.8004146635  SOLV      3379            0.0000000000
     10252      3391  TIP3      OH2             0.4902396015       -0.2637957466      -20.5437246635  SOLV      3380            0.0000000000
     10253      3391  TIP3      H1              0.9815796015       -0.8935557466      -21.0711746635  SOLV      3380            0.0000000000
     10254      3391  TIP3      H2              1.1138696015        0.0321442534      -19.8806046635  SOLV      3380            0.0000000000
     10255      3392  TIP3      OH2             5.5162496015        0.0293542534      -18.0866746635  SOLV      3381            0.0000000000
     10256      3392  TIP3      H1              5.6943796015       -0.6173257466      -17.4038146635  SOLV      3381            0.0000000000
     10257      3392  TIP3      H2              5.4628696015        0.8631242534      -17.6195646635  SOLV      3381            0.0000000000
     10258      3393  TIP3      OH2             7.3946296015       14.9777642534      -19.6910046635  SOLV      3382            0.0000000000
     10259      3393  TIP3      H1              8.2606496015       15.3445042534      -19.8691846635  SOLV      3382            0.0000000000
     10260      3393  TIP3      H2              7.1479096015       14.5385642534      -20.5049246635  SOLV      3382            0.0000000000
     10261      3394  TIP3      OH2            14.1035896015       14.5407942534      -17.0118946635  SOLV      3383            0.0000000000
     10262      3394  TIP3      H1             13.9092996015       13.7930042534      -17.5769346635  SOLV      3383            0.0000000000
     10263      3394  TIP3      H2             14.0645996015       15.2988042534      -17.5951046635  SOLV      3383            0.0000000000
     10264      3395  TIP3      OH2             1.7238696015       -2.1131257466       -3.7364146635  SOLV      3384            0.0000000000
     10265      3395  TIP3      H1              2.6222296015       -2.3871057466       -3.9210746635  SOLV      3384            0.0000000000
     10266      3395  TIP3      H2              1.3371796015       -2.8555257466       -3.2721546635  SOLV      3384            0.0000000000
     10267      3396  TIP3      OH2             0.3483996015       14.6883542534      -21.0634146635  SOLV      3385            0.0000000000
     10268      3396  TIP3      H1              0.0808596015       14.9746442534      -20.1901046635  SOLV      3385            0.0000000000
     10269      3396  TIP3      H2              1.1196596015       14.1422742534      -20.9111646635  SOLV      3385            0.0000000000
     10270      3397  TIP3      OH2            10.1450996015       -2.7805957466       -3.5541346635  SOLV      3386            0.0000000000
     10271      3397  TIP3      H1             10.2218196015       -3.2065257466       -2.7003646635  SOLV      3386            0.0000000000
     10272      3397  TIP3      H2             11.0387596015       -2.7671257466       -3.8967846635  SOLV      3386            0.0000000000
     10273      3398  TIP3      OH2            13.3212096015       13.2920342534       -4.8617146635  SOLV      3387            0.0000000000
     10274      3398  TIP3      H1             12.5393996015       13.1058342534       -5.3816546635  SOLV      3387            0.0000000000
     10275      3398  TIP3      H2             13.2491996015       14.2214642534       -4.6444646635  SOLV      3387            0.0000000000
     10276      3399  TIP3      OH2            27.7272496015        7.1784742534      -14.8309946635  SOLV      3388            0.0000000000
     10277      3399  TIP3      H1             27.8163596015        8.1222942534      -14.9632846635  SOLV      3388            0.0000000000
     10278      3399  TIP3      H2             27.0890096015        6.9031142534      -15.4890546635  SOLV      3388            0.0000000000
     10279      3400  TIP3      OH2            26.6603796015        6.4335442534      -11.4121746635  SOLV      3389            0.0000000000
     10280      3400  TIP3      H1             26.6221296015        5.7871742534      -10.7072146635  SOLV      3389            0.0000000000
     10281      3400  TIP3      H2             26.3380296015        5.9669842534      -12.1833046635  SOLV      3389            0.0000000000
     10282      3401  TIP3      OH2            19.0288796015        6.0477542534       -9.8191846635  SOLV      3390            0.0000000000
     10283      3401  TIP3      H1             19.0700896015        5.4220842534       -9.0959446635  SOLV      3390            0.0000000000
     10284      3401  TIP3      H2             19.7316496015        6.6716142534       -9.6371446635  SOLV      3390            0.0000000000
     10285      3402  TIP3      OH2            30.3663996015        9.3725842534      -13.1106646635  SOLV      3391            0.0000000000
     10286      3402  TIP3      H1             29.9256696015        8.6521842534      -12.6601046635  SOLV      3391            0.0000000000
     10287      3402  TIP3      H2             30.3533696015       10.0933042534      -12.4808946635  SOLV      3391            0.0000000000
     10288      3403  TIP3      OH2            19.9521896015       10.4976442534      -11.2842746635  SOLV      3392            0.0000000000
     10289      3403  TIP3      H1             19.5827096015        9.6956942534      -11.6538446635  SOLV      3392            0.0000000000
     10290      3403  TIP3      H2             20.8932996015       10.3291342534      -11.2379346635  SOLV      3392            0.0000000000
     10291      3404  TIP3      OH2            16.5622396015        4.1579042534      -15.8913946635  SOLV      3393            0.0000000000
     10292      3404  TIP3      H1             16.1145796015        5.0037742534      -15.9097446635  SOLV      3393            0.0000000000
     10293      3404  TIP3      H2             16.0013596015        3.5783242534      -16.4068846635  SOLV      3393            0.0000000000
     10294      3405  TIP3      OH2            17.2728496015        6.3198642534      -13.7655946635  SOLV      3394            0.0000000000
     10295      3405  TIP3      H1             17.4861996015        5.5500242534      -13.2382946635  SOLV      3394            0.0000000000
     10296      3405  TIP3      H2             18.0106096015        6.4095342534      -14.3688346635  SOLV      3394            0.0000000000
     10297      3406  TIP3      OH2            27.4779496015       14.4767542534      -12.8986246635  SOLV      3395            0.0000000000
     10298      3406  TIP3      H1             28.0975896015       13.8002242534      -13.1717046635  SOLV      3395            0.0000000000
     10299      3406  TIP3      H2             27.2696896015       14.2588342534      -11.9901346635  SOLV      3395            0.0000000000
     10300      3407  TIP3      OH2            25.0498196015        8.8656842534      -11.0060746635  SOLV      3396            0.0000000000
     10301      3407  TIP3      H1             25.3536096015        8.1798242534      -11.6006646635  SOLV      3396            0.0000000000
     10302      3407  TIP3      H2             25.7712196015        8.9845542534      -10.3882746635  SOLV      3396            0.0000000000
     10303      3408  TIP3      OH2            33.7127996015        0.4672142534      -10.1454546635  SOLV      3397            0.0000000000
     10304      3408  TIP3      H1             33.7620196015        1.0773342534       -9.4095446635  SOLV      3397            0.0000000000
     10305      3408  TIP3      H2             34.1383096015        0.9283042534      -10.8683446635  SOLV      3397            0.0000000000
     10306      3409  TIP3      OH2            28.1905196015        3.2599242534      -10.6785946635  SOLV      3398            0.0000000000
     10307      3409  TIP3      H1             28.3331096015        2.3136242534      -10.6584346635  SOLV      3398            0.0000000000
     10308      3409  TIP3      H2             28.0844196015        3.4669042534      -11.6071046635  SOLV      3398            0.0000000000
     10309      3410  TIP3      OH2            21.3453496015        1.3615642534      -13.4061146635  SOLV      3399            0.0000000000
     10310      3410  TIP3      H1             21.3884596015        2.2214142534      -13.8244846635  SOLV      3399            0.0000000000
     10311      3410  TIP3      H2             20.8877596015        0.8090342534      -14.0397946635  SOLV      3399            0.0000000000
     10312      3411  TIP3      OH2            29.0676196015        1.4921242534      -15.0052846635  SOLV      3400            0.0000000000
     10313      3411  TIP3      H1             29.7140496015        1.1634442534      -14.3805246635  SOLV      3400            0.0000000000
     10314      3411  TIP3      H2             29.5775596015        2.0100242534      -15.6281446635  SOLV      3400            0.0000000000
     10315      3412  TIP3      OH2            17.9654996015        3.7581442534      -12.6439746635  SOLV      3401            0.0000000000
     10316      3412  TIP3      H1             18.6191596015        3.2083142534      -12.2119646635  SOLV      3401            0.0000000000
     10317      3412  TIP3      H2             17.9894296015        3.4840442534      -13.5607746635  SOLV      3401            0.0000000000
     10318      3413  TIP3      OH2            23.1219496015        5.3082742534      -13.4288246635  SOLV      3402            0.0000000000
     10319      3413  TIP3      H1             23.7380496015        4.7818142534      -12.9194246635  SOLV      3402            0.0000000000
     10320      3413  TIP3      H2             22.5358296015        4.6681442534      -13.8324646635  SOLV      3402            0.0000000000
     10321      3414  TIP3      OH2            34.1042596015        1.9451342534       -7.9094746635  SOLV      3403            0.0000000000
     10322      3414  TIP3      H1             33.4157196015        2.6032042534       -8.0048146635  SOLV      3403            0.0000000000
     10323      3414  TIP3      H2             34.1197196015        1.7479242534       -6.9729346635  SOLV      3403            0.0000000000
     10324      3415  TIP3      OH2            20.1555396015        0.2794042534       -9.3320346635  SOLV      3404            0.0000000000
     10325      3415  TIP3      H1             19.9367096015        0.8094642534      -10.0984346635  SOLV      3404            0.0000000000
     10326      3415  TIP3      H2             19.4876296015        0.5059542534       -8.6848946635  SOLV      3404            0.0000000000
     10327      3416  TIP3      OH2            27.5245196015        9.7795142534      -15.7881246635  SOLV      3405            0.0000000000
     10328      3416  TIP3      H1             27.2290296015        9.4567442534      -16.6394346635  SOLV      3405            0.0000000000
     10329      3416  TIP3      H2             27.2002996015       10.6791842534      -15.7468646635  SOLV      3405            0.0000000000
     10330      3417  TIP3      OH2            22.7246796015        7.9549742534       -9.0446646635  SOLV      3406            0.0000000000
     10331      3417  TIP3      H1             21.9845896015        8.5531242534       -8.9411446635  SOLV      3406            0.0000000000
     10332      3417  TIP3      H2             23.4386296015        8.5089342534       -9.3603046635  SOLV      3406            0.0000000000
     10333      3418  TIP3      OH2            19.7492696015        2.1715842534      -11.3798146635  SOLV      3407            0.0000000000
     10334      3418  TIP3      H1             20.3628996015        2.8043442534      -11.0065746635  SOLV      3407            0.0000000000
     10335      3418  TIP3      H2             20.2613396015        1.6990842534      -12.0361246635  SOLV      3407            0.0000000000
     10336      3419  TIP3      OH2            21.1321096015        9.9192742534       -8.2575146635  SOLV      3408            0.0000000000
     10337      3419  TIP3      H1             21.1268696015       10.7986242534       -8.6355846635  SOLV      3408            0.0000000000
     10338      3419  TIP3      H2             20.2785196015        9.8356842534       -7.8325246635  SOLV      3408            0.0000000000
     10339      3420  TIP3      OH2            17.2531996015        9.5900642534      -17.4755846635  SOLV      3409            0.0000000000
     10340      3420  TIP3      H1             16.9812896015        9.8191642534      -18.3642946635  SOLV      3409            0.0000000000
     10341      3420  TIP3      H2             17.2987696015       10.4279442534      -17.0150546635  SOLV      3409            0.0000000000
     10342      3421  TIP3      OH2            30.8781696015       11.2116542534      -10.7627346635  SOLV      3410            0.0000000000
     10343      3421  TIP3      H1             29.9365396015       11.2700442534      -10.6010446635  SOLV      3410            0.0000000000
     10344      3421  TIP3      H2             31.1547796015       12.1177042534      -10.8997646635  SOLV      3410            0.0000000000
     10345      3422  TIP3      OH2            31.1788696015       -0.5018157466       -9.3453446635  SOLV      3411            0.0000000000
     10346      3422  TIP3      H1             30.4427896015        0.1088942534       -9.3832146635  SOLV      3411            0.0000000000
     10347      3422  TIP3      H2             31.8622696015       -0.0869157466       -9.8717046635  SOLV      3411            0.0000000000
     10348      3423  TIP3      OH2            24.1820096015       -2.4150857466      -11.8795446635  SOLV      3412            0.0000000000
     10349      3423  TIP3      H1             24.0644296015       -3.3634857466      -11.9337146635  SOLV      3412            0.0000000000
     10350      3423  TIP3      H2             23.3270196015       -2.0824757466      -11.6064346635  SOLV      3412            0.0000000000
     10351      3424  TIP3      OH2            29.1302896015       12.9930042534      -14.1375746635  SOLV      3413            0.0000000000
     10352      3424  TIP3      H1             29.5555196015       12.2857942534      -14.6226146635  SOLV      3413            0.0000000000
     10353      3424  TIP3      H2             29.4472896015       13.7942742534      -14.5543546635  SOLV      3413            0.0000000000
     10354      3425  TIP3      OH2            30.2899396015       10.8938542534      -15.6289146635  SOLV      3414            0.0000000000
     10355      3425  TIP3      H1             30.0324196015       10.2038642534      -16.2403246635  SOLV      3414            0.0000000000
     10356      3425  TIP3      H2             30.3610196015       10.4509742534      -14.7833246635  SOLV      3414            0.0000000000
     10357      3426  TIP3      OH2            31.9759596015        9.4605242534       -7.1515646635  SOLV      3415            0.0000000000
     10358      3426  TIP3      H1             32.1155896015        8.8687742534       -7.8908646635  SOLV      3415            0.0000000000
     10359      3426  TIP3      H2             32.1432396015       10.3331142534       -7.5076846635  SOLV      3415            0.0000000000
     10360      3427  TIP3      OH2            26.4484996015        6.4224742534      -17.3789646635  SOLV      3416            0.0000000000
     10361      3427  TIP3      H1             25.7370496015        6.9574442534      -17.7309146635  SOLV      3416            0.0000000000
     10362      3427  TIP3      H2             27.1394596015        6.4776842534      -18.0390746635  SOLV      3416            0.0000000000
     10363      3428  TIP3      OH2            26.5024196015        4.8799042534      -20.3404646635  SOLV      3417            0.0000000000
     10364      3428  TIP3      H1             27.2034096015        4.9025942534      -19.6890646635  SOLV      3417            0.0000000000
     10365      3428  TIP3      H2             26.8047096015        4.2518742534      -20.9965346635  SOLV      3417            0.0000000000
     10366      3429  TIP3      OH2            33.8178896015        5.8003242534       -9.0855246635  SOLV      3418            0.0000000000
     10367      3429  TIP3      H1             33.1652996015        6.4948842534       -8.9964346635  SOLV      3418            0.0000000000
     10368      3429  TIP3      H2             34.2829196015        6.0104142534       -9.8953646635  SOLV      3418            0.0000000000
     10369      3430  TIP3      OH2            29.8542696015        6.6318042534      -16.4273746635  SOLV      3419            0.0000000000
     10370      3430  TIP3      H1             29.1223696015        6.8601742534      -15.8543146635  SOLV      3419            0.0000000000
     10371      3430  TIP3      H2             30.3014896015        5.9180742534      -15.9726246635  SOLV      3419            0.0000000000
     10372      3431  TIP3      OH2            29.7516196015        4.8060642534       -7.3596746635  SOLV      3420            0.0000000000
     10373      3431  TIP3      H1             29.8315296015        5.5695042534       -6.7878246635  SOLV      3420            0.0000000000
     10374      3431  TIP3      H2             29.1503896015        5.0853042534       -8.0501646635  SOLV      3420            0.0000000000
     10375      3432  TIP3      OH2            21.4996396015        7.2624242534      -14.5448746635  SOLV      3421            0.0000000000
     10376      3432  TIP3      H1             21.1691596015        6.8917642534      -15.3631746635  SOLV      3421            0.0000000000
     10377      3432  TIP3      H2             22.0880496015        6.5918242534      -14.1980446635  SOLV      3421            0.0000000000
     10378      3433  TIP3      OH2            22.8663896015       10.6904842534      -11.8636546635  SOLV      3422            0.0000000000
     10379      3433  TIP3      H1             22.7715196015       10.1117942534      -12.6201946635  SOLV      3422            0.0000000000
     10380      3433  TIP3      H2             23.5957496015       10.3190542534      -11.3673746635  SOLV      3422            0.0000000000
     10381      3434  TIP3      OH2            21.8661896015        6.0309842534      -10.9113746635  SOLV      3423            0.0000000000
     10382      3434  TIP3      H1             22.4314396015        6.1524042534      -11.6742546635  SOLV      3423            0.0000000000
     10383      3434  TIP3      H2             22.1850796015        6.6684842534      -10.2725246635  SOLV      3423            0.0000000000
     10384      3435  TIP3      OH2            28.1754096015       11.5341742534      -10.1773246635  SOLV      3424            0.0000000000
     10385      3435  TIP3      H1             27.9350696015       12.1964842534       -9.5294046635  SOLV      3424            0.0000000000
     10386      3435  TIP3      H2             27.9772296015       10.6996942534       -9.7523646635  SOLV      3424            0.0000000000
     10387      3436  TIP3      OH2            22.7462596015       10.4302542534       -6.1941846635  SOLV      3425            0.0000000000
     10388      3436  TIP3      H1             22.4350096015       11.2125742534       -5.7388646635  SOLV      3425            0.0000000000
     10389      3436  TIP3      H2             22.0962796015       10.2771642534       -6.8799846635  SOLV      3425            0.0000000000
     10390      3437  TIP3      OH2            28.7252196015        5.7940942534      -18.7422546635  SOLV      3426            0.0000000000
     10391      3437  TIP3      H1             29.3047696015        5.9441242534      -17.9953646635  SOLV      3426            0.0000000000
     10392      3437  TIP3      H2             29.1392196015        6.2648342534      -19.4656146635  SOLV      3426            0.0000000000
     10393      3438  TIP3      OH2            19.6662496015        6.6283642534       -6.9656146635  SOLV      3427            0.0000000000
     10394      3438  TIP3      H1             19.7365696015        7.2790442534       -6.2671146635  SOLV      3427            0.0000000000
     10395      3438  TIP3      H2             18.7754696015        6.7311142534       -7.3005246635  SOLV      3427            0.0000000000
     10396      3439  TIP3      OH2            26.4517096015       12.5309442534      -15.3069446635  SOLV      3428            0.0000000000
     10397      3439  TIP3      H1             26.9254696015       12.8265742534      -14.5295246635  SOLV      3428            0.0000000000
     10398      3439  TIP3      H2             25.8886396015       13.2691042534      -15.5399846635  SOLV      3428            0.0000000000
     10399      3440  TIP3      OH2            20.9858496015       12.5017542534       -5.4308046635  SOLV      3429            0.0000000000
     10400      3440  TIP3      H1             20.9933796015       12.3657242534       -6.3782546635  SOLV      3429            0.0000000000
     10401      3440  TIP3      H2             20.0698896015       12.3845642534       -5.1788046635  SOLV      3429            0.0000000000
     10402      3441  TIP3      OH2            32.4240596015       -2.4558657466      -18.9292846635  SOLV      3430            0.0000000000
     10403      3441  TIP3      H1             31.5241296015       -2.3169657466      -18.6342246635  SOLV      3430            0.0000000000
     10404      3441  TIP3      H2             32.6758996015       -1.6244057466      -19.3311146635  SOLV      3430            0.0000000000
     10405      3442  TIP3      OH2            20.4899096015        6.3318542534      -16.9555946635  SOLV      3431            0.0000000000
     10406      3442  TIP3      H1             20.1980396015        7.1000242534      -17.4464646635  SOLV      3431            0.0000000000
     10407      3442  TIP3      H2             19.8154296015        5.6724742534      -17.1184546635  SOLV      3431            0.0000000000
     10408      3443  TIP3      OH2            33.6131996015       11.9103742534      -20.5528946635  SOLV      3432            0.0000000000
     10409      3443  TIP3      H1             33.6865496015       12.8493942534      -20.3823646635  SOLV      3432            0.0000000000
     10410      3443  TIP3      H2             34.5187096015       11.6052342534      -20.6091646635  SOLV      3432            0.0000000000
     10411      3444  TIP3      OH2            16.5829196015        8.6947742534       -8.1406146635  SOLV      3433            0.0000000000
     10412      3444  TIP3      H1             16.0817596015        8.6667142534       -8.9556446635  SOLV      3433            0.0000000000
     10413      3444  TIP3      H2             16.5882896015        7.7890942534       -7.8308846635  SOLV      3433            0.0000000000
     10414      3445  TIP3      OH2            16.3331896015       11.4751542534      -11.2565946635  SOLV      3434            0.0000000000
     10415      3445  TIP3      H1             17.2792496015       11.3308542534      -11.2756446635  SOLV      3434            0.0000000000
     10416      3445  TIP3      H2             16.2208196015       12.2594342534      -10.7194746635  SOLV      3434            0.0000000000
     10417      3446  TIP3      OH2            34.5310396015       12.1411242534       -5.5742246635  SOLV      3435            0.0000000000
     10418      3446  TIP3      H1             34.4817196015       11.1859342534       -5.6114646635  SOLV      3435            0.0000000000
     10419      3446  TIP3      H2             33.7042696015       12.4086542534       -5.1728446635  SOLV      3435            0.0000000000
     10420      3447  TIP3      OH2            25.5094396015       11.7150442534       -6.6980846635  SOLV      3436            0.0000000000
     10421      3447  TIP3      H1             25.5968996015       12.5415042534       -6.2231746635  SOLV      3436            0.0000000000
     10422      3447  TIP3      H2             24.6459496015       11.3854242534       -6.4491546635  SOLV      3436            0.0000000000
     10423      3448  TIP3      OH2            25.9240196015       15.4874142534      -16.8920246635  SOLV      3437            0.0000000000
     10424      3448  TIP3      H1             25.8486196015       15.3661342534      -17.8385046635  SOLV      3437            0.0000000000
     10425      3448  TIP3      H2             25.9568896015       16.4366842534      -16.7735646635  SOLV      3437            0.0000000000
     10426      3449  TIP3      OH2            19.5773996015       14.2761142534      -15.1111246635  SOLV      3438            0.0000000000
     10427      3449  TIP3      H1             19.7294396015       13.9281542534      -14.2324746635  SOLV      3438            0.0000000000
     10428      3449  TIP3      H2             18.7264396015       13.9198442534      -15.3664046635  SOLV      3438            0.0000000000
     10429      3450  TIP3      OH2            29.0256196015       14.6414342534      -19.8897846635  SOLV      3439            0.0000000000
     10430      3450  TIP3      H1             29.4004596015       13.8970442534      -20.3605246635  SOLV      3439            0.0000000000
     10431      3450  TIP3      H2             29.0299896015       14.3714942534      -18.9714546635  SOLV      3439            0.0000000000
     10432      3451  TIP3      OH2            28.6944296015       14.5671442534      -17.1405646635  SOLV      3440            0.0000000000
     10433      3451  TIP3      H1             27.7594096015       14.6673342534      -16.9618646635  SOLV      3440            0.0000000000
     10434      3451  TIP3      H2             28.9746196015       13.8577442534      -16.5622446635  SOLV      3440            0.0000000000
     10435      3452  TIP3      OH2            31.6830196015        3.6343742534       -5.0940046635  SOLV      3441            0.0000000000
     10436      3452  TIP3      H1             31.2756996015        4.1149342534       -5.8146746635  SOLV      3441            0.0000000000
     10437      3452  TIP3      H2             31.7235896015        2.7289742534       -5.4019246635  SOLV      3441            0.0000000000
     10438      3453  TIP3      OH2            18.8319696015       10.0183142534       -7.0973346635  SOLV      3442            0.0000000000
     10439      3453  TIP3      H1             19.0480996015        9.6568742534       -6.2377546635  SOLV      3442            0.0000000000
     10440      3453  TIP3      H2             17.9764396015        9.6436942534       -7.3069846635  SOLV      3442            0.0000000000
     10441      3454  TIP3      OH2            21.4507696015       -1.5116357466      -11.1019146635  SOLV      3443            0.0000000000
     10442      3454  TIP3      H1             20.5891396015       -1.5988157466      -11.5096246635  SOLV      3443            0.0000000000
     10443      3454  TIP3      H2             21.4283396015       -0.6556257466      -10.6741546635  SOLV      3443            0.0000000000
     10444      3455  TIP3      OH2            26.1135496015       -1.7895957466       -7.7272146635  SOLV      3444            0.0000000000
     10445      3455  TIP3      H1             26.5338596015       -2.2048857466       -6.9741546635  SOLV      3444            0.0000000000
     10446      3455  TIP3      H2             25.1805096015       -1.9682657466       -7.6100146635  SOLV      3444            0.0000000000
     10447      3456  TIP3      OH2            29.4400396015        1.9659242534       -6.8737646635  SOLV      3445            0.0000000000
     10448      3456  TIP3      H1             28.9259896015        1.8401442534       -6.0761646635  SOLV      3445            0.0000000000
     10449      3456  TIP3      H2             29.2845096015        2.8782342534       -7.1181446635  SOLV      3445            0.0000000000
     10450      3457  TIP3      OH2            30.2025296015        6.8269242534      -21.1124646635  SOLV      3446            0.0000000000
     10451      3457  TIP3      H1             30.2446096015        6.6043142534      -22.0424646635  SOLV      3446            0.0000000000
     10452      3457  TIP3      H2             31.0517396015        7.2256342534      -20.9224746635  SOLV      3446            0.0000000000
     10453      3458  TIP3      OH2            25.7752796015        0.7027442534      -20.4421346635  SOLV      3447            0.0000000000
     10454      3458  TIP3      H1             25.5217596015        0.7219042534      -19.5193246635  SOLV      3447            0.0000000000
     10455      3458  TIP3      H2             25.5184896015       -0.1687157466      -20.7435146635  SOLV      3447            0.0000000000
     10456      3459  TIP3      OH2            21.5417796015        3.4538142534      -10.0068946635  SOLV      3448            0.0000000000
     10457      3459  TIP3      H1             20.8999896015        3.4135442534       -9.2978846635  SOLV      3448            0.0000000000
     10458      3459  TIP3      H2             21.5789796015        4.3802842534      -10.2445946635  SOLV      3448            0.0000000000
     10459      3460  TIP3      OH2            21.5386896015        3.6748242534      -15.0948946635  SOLV      3449            0.0000000000
     10460      3460  TIP3      H1             20.6459796015        3.3344342534      -15.1535146635  SOLV      3449            0.0000000000
     10461      3460  TIP3      H2             21.9893496015        3.2979142534      -15.8505746635  SOLV      3449            0.0000000000
     10462      3461  TIP3      OH2            27.0742396015        4.0908542534      -16.2778146635  SOLV      3450            0.0000000000
     10463      3461  TIP3      H1             26.6652696015        4.9057142534      -16.5693346635  SOLV      3450            0.0000000000
     10464      3461  TIP3      H2             27.7948596015        3.9508642534      -16.8921046635  SOLV      3450            0.0000000000
     10465      3462  TIP3      OH2            26.1763996015        4.2664942534       -4.7897446635  SOLV      3451            0.0000000000
     10466      3462  TIP3      H1             25.6137796015        3.5616542534       -4.4689646635  SOLV      3451            0.0000000000
     10467      3462  TIP3      H2             27.0027396015        4.1456842534       -4.3219846635  SOLV      3451            0.0000000000
     10468      3463  TIP3      OH2            28.0790096015        3.5368942534      -13.4638446635  SOLV      3452            0.0000000000
     10469      3463  TIP3      H1             27.8834596015        4.1425742534      -14.1787846635  SOLV      3452            0.0000000000
     10470      3463  TIP3      H2             28.2602696015        2.7034142534      -13.8982146635  SOLV      3452            0.0000000000
     10471      3464  TIP3      OH2            19.2918296015        3.7741642534       -8.1396946635  SOLV      3453            0.0000000000
     10472      3464  TIP3      H1             19.2537696015        4.1743242534       -7.2709846635  SOLV      3453            0.0000000000
     10473      3464  TIP3      H2             18.8009396015        2.9574042534       -8.0494046635  SOLV      3453            0.0000000000
     10474      3465  TIP3      OH2            22.6575696015        1.1483942534      -21.3410946635  SOLV      3454            0.0000000000
     10475      3465  TIP3      H1             22.2266396015        0.7034042534      -20.6113546635  SOLV      3454            0.0000000000
     10476      3465  TIP3      H2             21.9394396015        1.5200242534      -21.8533446635  SOLV      3454            0.0000000000
     10477      3466  TIP3      OH2            15.8999096015        0.8903442534      -14.2892246635  SOLV      3455            0.0000000000
     10478      3466  TIP3      H1             16.5306796015        0.8615542534      -13.5698346635  SOLV      3455            0.0000000000
     10479      3466  TIP3      H2             16.3493396015        0.4652142534      -15.0196346635  SOLV      3455            0.0000000000
     10480      3467  TIP3      OH2            17.1741196015        1.6365442534      -18.8651846635  SOLV      3456            0.0000000000
     10481      3467  TIP3      H1             17.6482896015        2.2275342534      -19.4500946635  SOLV      3456            0.0000000000
     10482      3467  TIP3      H2             16.4567596015        2.1668342534      -18.5181746635  SOLV      3456            0.0000000000
     10483      3468  TIP3      OH2            27.3429296015        5.1750242534       -8.7926046635  SOLV      3457            0.0000000000
     10484      3468  TIP3      H1             27.6664096015        4.5439942534       -9.4355546635  SOLV      3457            0.0000000000
     10485      3468  TIP3      H2             26.9028596015        4.6402442534       -8.1318646635  SOLV      3457            0.0000000000
     10486      3469  TIP3      OH2            24.1202196015        1.1025742534      -14.0084846635  SOLV      3458            0.0000000000
     10487      3469  TIP3      H1             23.2093296015        1.1592542534      -13.7198846635  SOLV      3458            0.0000000000
     10488      3469  TIP3      H2             24.6255096015        1.0421242534      -13.1977646635  SOLV      3458            0.0000000000
     10489      3470  TIP3      OH2            18.9485596015        2.7312042534      -15.1817246635  SOLV      3459            0.0000000000
     10490      3470  TIP3      H1             18.0593596015        2.8307542534      -15.5217646635  SOLV      3459            0.0000000000
     10491      3470  TIP3      H2             19.2450496015        1.8895042534      -15.5279346635  SOLV      3459            0.0000000000
     10492      3471  TIP3      OH2            22.6017396015        2.7314642534      -17.5252646635  SOLV      3460            0.0000000000
     10493      3471  TIP3      H1             23.5332896015        2.8604642534      -17.3469546635  SOLV      3460            0.0000000000
     10494      3471  TIP3      H2             22.3867696015        3.4008942534      -18.1747946635  SOLV      3460            0.0000000000
     10495      3472  TIP3      OH2            28.5254096015        0.3372042534      -10.7443046635  SOLV      3461            0.0000000000
     10496      3472  TIP3      H1             27.8485696015        0.4685142534      -10.0803346635  SOLV      3461            0.0000000000
     10497      3472  TIP3      H2             28.0398996015        0.1821542534      -11.5545346635  SOLV      3461            0.0000000000
     10498      3473  TIP3      OH2            21.2757596015        3.9256842534      -19.9586546635  SOLV      3462            0.0000000000
     10499      3473  TIP3      H1             20.7332696015        3.5460642534      -20.6498946635  SOLV      3462            0.0000000000
     10500      3473  TIP3      H2             22.1092496015        4.1201542534      -20.3872446635  SOLV      3462            0.0000000000
     10501      3474  TIP3      OH2            31.8129196015       16.0087442534       -4.4675446635  SOLV      3463            0.0000000000
     10502      3474  TIP3      H1             32.0127896015       16.4329342534       -5.3020146635  SOLV      3463            0.0000000000
     10503      3474  TIP3      H2             32.4682896015       16.3525642534       -3.8605046635  SOLV      3463            0.0000000000
     10504      3475  TIP3      OH2            19.4108996015        8.4828742534       -4.8594946635  SOLV      3464            0.0000000000
     10505      3475  TIP3      H1             20.1431396015        8.7374642534       -4.2980446635  SOLV      3464            0.0000000000
     10506      3475  TIP3      H2             18.6307696015        8.6874142534       -4.3439546635  SOLV      3464            0.0000000000
     10507      3476  TIP3      OH2            25.4401896015        3.8898742534      -12.1215246635  SOLV      3465            0.0000000000
     10508      3476  TIP3      H1             26.0045296015        3.3435342534      -12.6685646635  SOLV      3465            0.0000000000
     10509      3476  TIP3      H2             25.2925296015        3.3680642534      -11.3327646635  SOLV      3465            0.0000000000
     10510      3477  TIP3      OH2            20.4421596015        0.0264842534      -15.7030446635  SOLV      3466            0.0000000000
     10511      3477  TIP3      H1             20.1251096015       -0.8759857466      -15.7385046635  SOLV      3466            0.0000000000
     10512      3477  TIP3      H2             21.2235696015        0.0282242534      -16.2558846635  SOLV      3466            0.0000000000
     10513      3478  TIP3      OH2            24.0667796015        2.2784842534       -9.7074846635  SOLV      3467            0.0000000000
     10514      3478  TIP3      H1             23.2313096015        2.7324342534       -9.5972446635  SOLV      3467            0.0000000000
     10515      3478  TIP3      H2             24.5908396015        2.5543342534       -8.9554946635  SOLV      3467            0.0000000000
     10516      3479  TIP3      OH2            24.6110396015        8.4912542534      -18.0228446635  SOLV      3468            0.0000000000
     10517      3479  TIP3      H1             23.8661396015        7.9837842534      -18.3450546635  SOLV      3468            0.0000000000
     10518      3479  TIP3      H2             24.4767596015        8.5400542534      -17.0763646635  SOLV      3468            0.0000000000
     10519      3480  TIP3      OH2            31.7609296015        7.6240742534       -9.2360846635  SOLV      3469            0.0000000000
     10520      3480  TIP3      H1             32.4028096015        8.0807042534       -9.7798646635  SOLV      3469            0.0000000000
     10521      3480  TIP3      H2             30.9306196015        7.7373142534       -9.6986746635  SOLV      3469            0.0000000000
     10522      3481  TIP3      OH2            28.5087196015        1.3052442534      -19.8235846635  SOLV      3470            0.0000000000
     10523      3481  TIP3      H1             27.5701396015        1.4168042534      -19.9747046635  SOLV      3470            0.0000000000
     10524      3481  TIP3      H2             28.8059296015        2.1619342534      -19.5170146635  SOLV      3470            0.0000000000
     10525      3482  TIP3      OH2            26.1302496015        8.6755842534       -6.7859346635  SOLV      3471            0.0000000000
     10526      3482  TIP3      H1             25.7848596015        8.2938242534       -5.9789746635  SOLV      3471            0.0000000000
     10527      3482  TIP3      H2             25.9302596015        9.6089442534       -6.7146446635  SOLV      3471            0.0000000000
     10528      3483  TIP3      OH2            29.2270696015        3.1725142534      -18.1628446635  SOLV      3472            0.0000000000
     10529      3483  TIP3      H1             30.1189696015        3.0350142534      -17.8437246635  SOLV      3472            0.0000000000
     10530      3483  TIP3      H2             29.2834296015        3.9631242534      -18.6994946635  SOLV      3472            0.0000000000
     10531      3484  TIP3      OH2            19.7358696015        7.7862542534      -12.2530546635  SOLV      3473            0.0000000000
     10532      3484  TIP3      H1             20.4805896015        7.7838242534      -12.8544046635  SOLV      3473            0.0000000000
     10533      3484  TIP3      H2             19.8135296015        6.9626342534      -11.7715446635  SOLV      3473            0.0000000000
     10534      3485  TIP3      OH2            26.7364496015        9.9496842534      -18.9973846635  SOLV      3474            0.0000000000
     10535      3485  TIP3      H1             26.4412896015       10.7764742534      -18.6159046635  SOLV      3474            0.0000000000
     10536      3485  TIP3      H2             26.0334496015        9.3303742534      -18.8012446635  SOLV      3474            0.0000000000
     10537      3486  TIP3      OH2            16.7438396015        6.2469442534       -6.9382046635  SOLV      3475            0.0000000000
     10538      3486  TIP3      H1             16.9666996015        5.8289042534       -6.1064546635  SOLV      3475            0.0000000000
     10539      3486  TIP3      H2             16.1418496015        5.6344442534       -7.3609246635  SOLV      3475            0.0000000000
     10540      3487  TIP3      OH2            23.7603296015        5.7639342534       -4.7252346635  SOLV      3476            0.0000000000
     10541      3487  TIP3      H1             23.4644096015        5.5982342534       -5.6203246635  SOLV      3476            0.0000000000
     10542      3487  TIP3      H2             24.6918496015        5.5439642534       -4.7358446635  SOLV      3476            0.0000000000
     10543      3488  TIP3      OH2            28.3806096015       11.1371342534       -6.8354346635  SOLV      3477            0.0000000000
     10544      3488  TIP3      H1             27.4800396015       11.3203942534       -7.1030446635  SOLV      3477            0.0000000000
     10545      3488  TIP3      H2             28.4147196015       11.3960642534       -5.9145546635  SOLV      3477            0.0000000000
     10546      3489  TIP3      OH2            34.1119396015        3.3819242534      -18.4681746635  SOLV      3478            0.0000000000
     10547      3489  TIP3      H1             33.5575696015        2.9857242534      -19.1404246635  SOLV      3478            0.0000000000
     10548      3489  TIP3      H2             34.2122996015        4.2924442534      -18.7458446635  SOLV      3478            0.0000000000
     10549      3490  TIP3      OH2            34.0751396015        9.1820942534       -5.6310246635  SOLV      3479            0.0000000000
     10550      3490  TIP3      H1             33.2239896015        9.4204742534       -5.9983846635  SOLV      3479            0.0000000000
     10551      3490  TIP3      H2             34.6654796015        9.1654142534       -6.3843146635  SOLV      3479            0.0000000000
     10552      3491  TIP3      OH2            32.4071096015       12.1679642534      -18.0029646635  SOLV      3480            0.0000000000
     10553      3491  TIP3      H1             32.0342196015       11.3423442534      -17.6939046635  SOLV      3480            0.0000000000
     10554      3491  TIP3      H2             32.6844596015       11.9849042534      -18.9006246635  SOLV      3480            0.0000000000
     10555      3492  TIP3      OH2            29.5674996015        6.9759142534      -10.9817746635  SOLV      3481            0.0000000000
     10556      3492  TIP3      H1             28.6391896015        6.7441042534      -11.0088446635  SOLV      3481            0.0000000000
     10557      3492  TIP3      H2             30.0186096015        6.1988942534      -11.3118946635  SOLV      3481            0.0000000000
     10558      3493  TIP3      OH2            22.1108096015       11.3040742534      -14.8489046635  SOLV      3482            0.0000000000
     10559      3493  TIP3      H1             22.6380296015       12.0775142534      -15.0490246635  SOLV      3482            0.0000000000
     10560      3493  TIP3      H2             21.2306596015       11.5289942534      -15.1505046635  SOLV      3482            0.0000000000
     10561      3494  TIP3      OH2            17.8655796015        6.1664842534      -20.2616646635  SOLV      3483            0.0000000000
     10562      3494  TIP3      H1             18.4815696015        6.7932042534      -19.8821846635  SOLV      3483            0.0000000000
     10563      3494  TIP3      H2             17.0038396015        6.4824642534      -19.9900146635  SOLV      3483            0.0000000000
     10564      3495  TIP3      OH2            23.5380396015        8.9670642534      -15.2724746635  SOLV      3484            0.0000000000
     10565      3495  TIP3      H1             23.2970396015        9.8925042534      -15.2309446635  SOLV      3484            0.0000000000
     10566      3495  TIP3      H2             22.7973996015        8.5081942534      -14.8760846635  SOLV      3484            0.0000000000
     10567      3496  TIP3      OH2            24.0526996015       13.1164242534       -8.9573646635  SOLV      3485            0.0000000000
     10568      3496  TIP3      H1             24.4151696015       13.9709842534       -9.1909246635  SOLV      3485            0.0000000000
     10569      3496  TIP3      H2             24.5842196015       12.8245842534       -8.2167346635  SOLV      3485            0.0000000000
     10570      3497  TIP3      OH2            22.2211196015       13.9888242534      -15.7272546635  SOLV      3486            0.0000000000
     10571      3497  TIP3      H1             21.2711696015       14.0945642534      -15.6759246635  SOLV      3486            0.0000000000
     10572      3497  TIP3      H2             22.5729296015       14.8095642534      -15.3825046635  SOLV      3486            0.0000000000
     10573      3498  TIP3      OH2            27.5967796015        9.2154942534       -9.2568046635  SOLV      3487            0.0000000000
     10574      3498  TIP3      H1             27.1709096015        8.9876642534       -8.4304046635  SOLV      3487            0.0000000000
     10575      3498  TIP3      H2             28.1773596015        8.4766742534       -9.4392746635  SOLV      3487            0.0000000000
     10576      3499  TIP3      OH2            29.7996696015       10.1445442534      -20.1829046635  SOLV      3488            0.0000000000
     10577      3499  TIP3      H1             30.1529796015        9.7645242534      -19.3785546635  SOLV      3488            0.0000000000
     10578      3499  TIP3      H2             28.8510196015       10.0510242534      -20.0959746635  SOLV      3488            0.0000000000
     10579      3500  TIP3      OH2            30.2551996015       13.7674442534       -6.7873246635  SOLV      3489            0.0000000000
     10580      3500  TIP3      H1             29.6535196015       13.2117342534       -7.2826946635  SOLV      3489            0.0000000000
     10581      3500  TIP3      H2             30.5365696015       14.4344242534       -7.4135846635  SOLV      3489            0.0000000000
     10582      3501  TIP3      OH2            18.3777896015        1.0002142534       -7.3800646635  SOLV      3490            0.0000000000
     10583      3501  TIP3      H1             17.4850196015        1.3387542534       -7.4476646635  SOLV      3490            0.0000000000
     10584      3501  TIP3      H2             18.2790696015        0.1448242534       -6.9619846635  SOLV      3490            0.0000000000
     10585      3502  TIP3      OH2            30.6655996015        8.8167442534      -17.9561146635  SOLV      3491            0.0000000000
     10586      3502  TIP3      H1             30.3883596015        8.0886742534      -17.4000046635  SOLV      3491            0.0000000000
     10587      3502  TIP3      H2             31.5928996015        8.9359442534      -17.7508546635  SOLV      3491            0.0000000000
     10588      3503  TIP3      OH2            18.0289896015       12.8046542534       -8.9451246635  SOLV      3492            0.0000000000
     10589      3503  TIP3      H1             18.2460196015       11.8728942534       -8.9761546635  SOLV      3492            0.0000000000
     10590      3503  TIP3      H2             18.2753396015       13.0791542534       -8.0618446635  SOLV      3492            0.0000000000
     10591      3504  TIP3      OH2            23.8904496015       11.2561542534      -21.7359046635  SOLV      3493            0.0000000000
     10592      3504  TIP3      H1             24.1294296015       10.5079642534      -22.2830146635  SOLV      3493            0.0000000000
     10593      3504  TIP3      H2             23.6215796015       10.8683242534      -20.9031246635  SOLV      3493            0.0000000000
     10594      3505  TIP3      OH2            22.8275096015       10.8265342534      -19.2796446635  SOLV      3494            0.0000000000
     10595      3505  TIP3      H1             22.9743096015       10.3065142534      -18.4895546635  SOLV      3494            0.0000000000
     10596      3505  TIP3      H2             22.8246796015       11.7332942534      -18.9730546635  SOLV      3494            0.0000000000
     10597      3506  TIP3      OH2            19.2806196015        8.0788642534      -18.7691046635  SOLV      3495            0.0000000000
     10598      3506  TIP3      H1             18.5945496015        8.4311142534      -18.2021346635  SOLV      3495            0.0000000000
     10599      3506  TIP3      H2             19.8034096015        8.8418242534      -19.0156746635  SOLV      3495            0.0000000000
     10600      3507  TIP3      OH2            27.1121296015        0.7412442534       -8.4902046635  SOLV      3496            0.0000000000
     10601      3507  TIP3      H1             27.8109196015        0.8151142534       -7.8402346635  SOLV      3496            0.0000000000
     10602      3507  TIP3      H2             26.7312696015       -0.1232557466       -8.3359146635  SOLV      3496            0.0000000000
     10603      3508  TIP3      OH2            27.8966196015        0.3934142534      -17.3929746635  SOLV      3497            0.0000000000
     10604      3508  TIP3      H1             28.1164496015        0.8649542534      -18.1964346635  SOLV      3497            0.0000000000
     10605      3508  TIP3      H2             28.4550196015        0.7876742534      -16.7229146635  SOLV      3497            0.0000000000
     10606      3509  TIP3      OH2            25.5652296015       12.5238942534      -18.5302246635  SOLV      3498            0.0000000000
     10607      3509  TIP3      H1             24.7488396015       13.0208642534      -18.4777946635  SOLV      3498            0.0000000000
     10608      3509  TIP3      H2             26.0948596015       12.9992442534      -19.1703446635  SOLV      3498            0.0000000000
     10609      3510  TIP3      OH2            25.0966096015        2.1212942534      -16.5581346635  SOLV      3499            0.0000000000
     10610      3510  TIP3      H1             25.9088696015        2.6256142534      -16.5119646635  SOLV      3499            0.0000000000
     10611      3510  TIP3      H2             24.8519096015        1.9762642534      -15.6441746635  SOLV      3499            0.0000000000
     10612      3511  TIP3      OH2            25.6322496015        3.1075642534       -7.3734746635  SOLV      3500            0.0000000000
     10613      3511  TIP3      H1             25.7512796015        3.6811042534       -6.6164346635  SOLV      3500            0.0000000000
     10614      3511  TIP3      H2             26.2877096015        2.4195042534       -7.2586946635  SOLV      3500            0.0000000000
     10615      3512  TIP3      OH2            25.9802796015       -0.7974057466      -15.6200246635  SOLV      3501            0.0000000000
     10616      3512  TIP3      H1             25.6336296015       -0.1803457466      -14.9755946635  SOLV      3501            0.0000000000
     10617      3512  TIP3      H2             26.6389696015       -0.2968357466      -16.1014746635  SOLV      3501            0.0000000000
     10618      3513  TIP3      OH2            22.9035396015       13.5676142534      -18.5485346635  SOLV      3502            0.0000000000
     10619      3513  TIP3      H1             23.0644096015       14.3673642534      -19.0492746635  SOLV      3502            0.0000000000
     10620      3513  TIP3      H2             22.7063196015       13.8742142534      -17.6634746635  SOLV      3502            0.0000000000
     10621      3514  TIP3      OH2            21.6379796015        0.2655342534      -18.9327746635  SOLV      3503            0.0000000000
     10622      3514  TIP3      H1             21.5544596015        1.1538442534      -18.5861346635  SOLV      3503            0.0000000000
     10623      3514  TIP3      H2             22.5280096015        0.0002042534      -18.7010946635  SOLV      3503            0.0000000000
     10624      3515  TIP3      OH2            31.8368296015        1.0145942534       -6.5385046635  SOLV      3504            0.0000000000
     10625      3515  TIP3      H1             30.9204096015        1.2767642534       -6.6261346635  SOLV      3504            0.0000000000
     10626      3515  TIP3      H2             32.1723296015        1.0114942534       -7.4349746635  SOLV      3504            0.0000000000
     10627      3516  TIP3      OH2            30.4389296015        4.7646942534      -12.4427746635  SOLV      3505            0.0000000000
     10628      3516  TIP3      H1             29.6413696015        4.3497142534      -12.7712746635  SOLV      3505            0.0000000000
     10629      3516  TIP3      H2             30.8840396015        4.0740642534      -11.9517246635  SOLV      3505            0.0000000000
     10630      3517  TIP3      OH2            19.8965096015       10.6927542534      -19.8723246635  SOLV      3506            0.0000000000
     10631      3517  TIP3      H1             20.4886596015       11.3922342534      -19.5960846635  SOLV      3506            0.0000000000
     10632      3517  TIP3      H2             20.3558096015       10.2597042534      -20.5918646635  SOLV      3506            0.0000000000
     10633      3518  TIP3      OH2            18.2124296015        3.3570542534      -20.7563846635  SOLV      3507            0.0000000000
     10634      3518  TIP3      H1             18.1676896015        4.2963642534      -20.5776846635  SOLV      3507            0.0000000000
     10635      3518  TIP3      H2             17.3247496015        3.1215442534      -21.0261746635  SOLV      3507            0.0000000000
     10636      3519  TIP3      OH2            31.5253896015       14.0209442534      -10.8204246635  SOLV      3508            0.0000000000
     10637      3519  TIP3      H1             31.3698196015       14.6993842534      -11.4774946635  SOLV      3508            0.0000000000
     10638      3519  TIP3      H2             32.4580296015       14.0928742534      -10.6173646635  SOLV      3508            0.0000000000
     10639      3520  TIP3      OH2            19.0206296015       -1.8612857466      -12.0832846635  SOLV      3509            0.0000000000
     10640      3520  TIP3      H1             18.7916096015       -1.8020357466      -13.0107846635  SOLV      3509            0.0000000000
     10641      3520  TIP3      H2             18.5779696015       -2.6527357466      -11.7768746635  SOLV      3509            0.0000000000
     10642      3521  TIP3      OH2            17.9509596015       12.0794242534      -15.9227046635  SOLV      3510            0.0000000000
     10643      3521  TIP3      H1             17.1188196015       12.5516942534      -15.8955646635  SOLV      3510            0.0000000000
     10644      3521  TIP3      H2             18.4967896015       12.5891842534      -16.5213946635  SOLV      3510            0.0000000000
     10645      3522  TIP3      OH2            17.2393296015       14.6917942534       -4.5929046635  SOLV      3511            0.0000000000
     10646      3522  TIP3      H1             17.7795496015       14.4751942534       -3.8329846635  SOLV      3511            0.0000000000
     10647      3522  TIP3      H2             16.7581296015       13.8863942534       -4.7826546635  SOLV      3511            0.0000000000
     10648      3523  TIP3      OH2            21.8366696015       13.6112342534       -2.9724846635  SOLV      3512            0.0000000000
     10649      3523  TIP3      H1             22.6043896015       13.1523142534       -2.6315646635  SOLV      3512            0.0000000000
     10650      3523  TIP3      H2             21.8152896015       13.3852142534       -3.9023646635  SOLV      3512            0.0000000000
     10651      3524  TIP3      OH2            25.9286296015       13.1192942534      -21.5973046635  SOLV      3513            0.0000000000
     10652      3524  TIP3      H1             25.2847296015       12.4881542534      -21.2759346635  SOLV      3513            0.0000000000
     10653      3524  TIP3      H2             26.6904596015       12.5880942534      -21.8289546635  SOLV      3513            0.0000000000
     10654      3525  TIP3      OH2            28.4135396015       11.9913442534       -4.2433346635  SOLV      3514            0.0000000000
     10655      3525  TIP3      H1             28.0624896015       11.1346442534       -4.0002946635  SOLV      3514            0.0000000000
     10656      3525  TIP3      H2             29.1398596015       12.1340142534       -3.6364346635  SOLV      3514            0.0000000000
     10657      3526  TIP3      OH2            30.5329196015       12.9362842534      -21.3635046635  SOLV      3515            0.0000000000
     10658      3526  TIP3      H1             30.8159596015       12.1418042534      -20.9108146635  SOLV      3515            0.0000000000
     10659      3526  TIP3      H2             31.2727096015       13.1693842534      -21.9243946635  SOLV      3515            0.0000000000
     10660      3527  TIP3      OH2            17.1462796015        8.5022042534       -3.6384746635  SOLV      3516            0.0000000000
     10661      3527  TIP3      H1             17.2903296015        7.6002742534       -3.9248046635  SOLV      3516            0.0000000000
     10662      3527  TIP3      H2             16.3740196015        8.7884142534       -4.1262446635  SOLV      3516            0.0000000000
     10663      3528  TIP3      OH2            21.4876496015        8.8457742534      -21.5060146635  SOLV      3517            0.0000000000
     10664      3528  TIP3      H1             21.5520596015        8.0517342534      -20.9753746635  SOLV      3517            0.0000000000
     10665      3528  TIP3      H2             22.1405696015        8.7270542534      -22.1958146635  SOLV      3517            0.0000000000
     10666      3529  TIP3      OH2            23.8018896015        8.4720142534       -4.2058346635  SOLV      3518            0.0000000000
     10667      3529  TIP3      H1             23.4732696015        8.7428242534       -5.0630946635  SOLV      3518            0.0000000000
     10668      3529  TIP3      H2             23.9537096015        7.5309942534       -4.2933346635  SOLV      3518            0.0000000000
     10669      3530  TIP3      OH2            26.8399896015        9.8929442534      -21.7702146635  SOLV      3519            0.0000000000
     10670      3530  TIP3      H1             26.5713996015       10.0731542534      -20.8693246635  SOLV      3519            0.0000000000
     10671      3530  TIP3      H2             26.6335496015        8.9675642534      -21.9016346635  SOLV      3519            0.0000000000
     10672      3531  TIP3      OH2            29.5364096015        8.3877442534       -6.8226046635  SOLV      3520            0.0000000000
     10673      3531  TIP3      H1             30.2818896015        8.9761142534       -6.9422046635  SOLV      3520            0.0000000000
     10674      3531  TIP3      H2             28.7790896015        8.9697142534       -6.7592946635  SOLV      3520            0.0000000000
     10675      3532  TIP3      OH2            17.9789296015        5.7025342534       -4.2185446635  SOLV      3521            0.0000000000
     10676      3532  TIP3      H1             18.3870496015        4.8451942534       -4.3394846635  SOLV      3521            0.0000000000
     10677      3532  TIP3      H2             17.7186896015        5.7166642534       -3.2975146635  SOLV      3521            0.0000000000
     10678      3533  TIP3      OH2            22.6370296015        6.8183942534      -19.2002146635  SOLV      3522            0.0000000000
     10679      3533  TIP3      H1             22.1772296015        6.3342242534      -18.5143646635  SOLV      3522            0.0000000000
     10680      3533  TIP3      H2             22.8918996015        6.1499342534      -19.8361646635  SOLV      3522            0.0000000000
     10681      3534  TIP3      OH2            21.9259596015        4.7111042534       -6.8442546635  SOLV      3523            0.0000000000
     10682      3534  TIP3      H1             21.3075696015        5.3857642534       -6.5637846635  SOLV      3523            0.0000000000
     10683      3534  TIP3      H2             22.2700796015        5.0324942534       -7.6776346635  SOLV      3523            0.0000000000
     10684      3535  TIP3      OH2            23.7080696015        5.0615742534      -20.9378946635  SOLV      3524            0.0000000000
     10685      3535  TIP3      H1             23.5275696015        4.9066942534      -21.8650646635  SOLV      3524            0.0000000000
     10686      3535  TIP3      H2             24.6581196015        5.1694442534      -20.8931046635  SOLV      3524            0.0000000000
     10687      3536  TIP3      OH2            26.9457796015        7.1826342534       -3.5667746635  SOLV      3525            0.0000000000
     10688      3536  TIP3      H1             27.8988996015        7.2665442534       -3.5941746635  SOLV      3525            0.0000000000
     10689      3536  TIP3      H2             26.7852396015        6.4708142534       -2.9472846635  SOLV      3525            0.0000000000
     10690      3537  TIP3      OH2            33.0978996015        7.4159942534      -21.4920846635  SOLV      3526            0.0000000000
     10691      3537  TIP3      H1             32.8243796015        6.9915442534      -22.3052546635  SOLV      3526            0.0000000000
     10692      3537  TIP3      H2             33.1373096015        8.3474442534      -21.7090446635  SOLV      3526            0.0000000000
     10693      3538  TIP3      OH2            22.2653296015        2.0661842534       -5.7619446635  SOLV      3527            0.0000000000
     10694      3538  TIP3      H1             22.4154196015        1.3373142534       -6.3639746635  SOLV      3527            0.0000000000
     10695      3538  TIP3      H2             22.2675696015        2.8433542534       -6.3207246635  SOLV      3527            0.0000000000
     10696      3539  TIP3      OH2            22.6778996015        0.4357642534       -8.2692046635  SOLV      3528            0.0000000000
     10697      3539  TIP3      H1             23.2136496015        0.8874342534       -8.9212746635  SOLV      3528            0.0000000000
     10698      3539  TIP3      H2             21.8258596015        0.3277442534       -8.6917946635  SOLV      3528            0.0000000000
     10699      3540  TIP3      OH2            24.2597396015        5.8753842534       -8.0296846635  SOLV      3529            0.0000000000
     10700      3540  TIP3      H1             25.0102196015        5.7191342534       -8.6029046635  SOLV      3529            0.0000000000
     10701      3540  TIP3      H2             23.9205696015        6.7270442534       -8.3051346635  SOLV      3529            0.0000000000
     10702      3541  TIP3      OH2            28.6753596015        3.6905642534       -3.0011546635  SOLV      3530            0.0000000000
     10703      3541  TIP3      H1             28.8674896015        2.7595042534       -3.1127046635  SOLV      3530            0.0000000000
     10704      3541  TIP3      H2             29.5329896015        4.1155142534       -3.0116146635  SOLV      3530            0.0000000000
     10705      3542  TIP3      OH2            29.9920796015        6.4790842534       -4.9238846635  SOLV      3531            0.0000000000
     10706      3542  TIP3      H1             29.7105796015        7.1885442534       -5.5015046635  SOLV      3531            0.0000000000
     10707      3542  TIP3      H2             30.9345096015        6.4063842534       -5.0747646635  SOLV      3531            0.0000000000
     10708      3543  TIP3      OH2            20.7439596015        3.2645342534       -3.8503846635  SOLV      3532            0.0000000000
     10709      3543  TIP3      H1             19.9768596015        2.7320142534       -4.0606246635  SOLV      3532            0.0000000000
     10710      3543  TIP3      H2             21.4228596015        2.9545742534       -4.4497546635  SOLV      3532            0.0000000000
     10711      3544  TIP3      OH2            23.4834496015       -2.1076657466       -7.8378446635  SOLV      3533            0.0000000000
     10712      3544  TIP3      H1             23.3854096015       -1.1613457466       -7.9432246635  SOLV      3533            0.0000000000
     10713      3544  TIP3      H2             22.7410696015       -2.4802857466       -8.3134946635  SOLV      3533            0.0000000000
     10714      3545  TIP3      OH2            24.7474996015        2.2138742534       -4.2740046635  SOLV      3534            0.0000000000
     10715      3545  TIP3      H1             24.5120396015        1.9945442534       -3.3725146635  SOLV      3534            0.0000000000
     10716      3545  TIP3      H2             23.9641896015        2.0069942534       -4.7837546635  SOLV      3534            0.0000000000
     10717      3546  TIP3      OH2            27.4631596015        1.3412242534       -5.1986546635  SOLV      3535            0.0000000000
     10718      3546  TIP3      H1             26.5156996015        1.3731942534       -5.0663246635  SOLV      3535            0.0000000000
     10719      3546  TIP3      H2             27.7758296015        0.7159342534       -4.5448346635  SOLV      3535            0.0000000000
     10720      3547  TIP3      OH2            29.0973096015       -0.0246657466       -3.1934646635  SOLV      3536            0.0000000000
     10721      3547  TIP3      H1             29.0004896015       -0.9769357466       -3.1992746635  SOLV      3536            0.0000000000
     10722      3547  TIP3      H2             28.7756196015        0.2440142534       -2.3329146635  SOLV      3536            0.0000000000
     10723      3548  TIP3      OH2            18.9242396015        1.1849142534       -4.1459146635  SOLV      3537            0.0000000000
     10724      3548  TIP3      H1             19.1359796015        0.4785242534       -4.7561646635  SOLV      3537            0.0000000000
     10725      3548  TIP3      H2             18.8129896015        0.7475142534       -3.3017946635  SOLV      3537            0.0000000000
     10726      3549  TIP3      OH2            23.7052596015       -2.8139257466       -5.1665646635  SOLV      3538            0.0000000000
     10727      3549  TIP3      H1             24.4170996015       -3.4537057466       -5.1806546635  SOLV      3538            0.0000000000
     10728      3549  TIP3      H2             23.6042996015       -2.5470957466       -6.0802546635  SOLV      3538            0.0000000000
     10729      3550  TIP3      OH2            24.0590096015       -1.1310857466       -3.1129346635  SOLV      3539            0.0000000000
     10730      3550  TIP3      H1             23.9272296015       -1.6067057466       -3.9330846635  SOLV      3539            0.0000000000
     10731      3550  TIP3      H2             23.4597496015       -0.3867257466       -3.1682246635  SOLV      3539            0.0000000000
     10732      3551  TIP3      OH2            23.6052396015       15.7519442534      -19.9365346635  SOLV      3540            0.0000000000
     10733      3551  TIP3      H1             24.5383096015       15.9098142534      -19.7926946635  SOLV      3540            0.0000000000
     10734      3551  TIP3      H2             23.3411196015       16.4272442534      -20.5613846635  SOLV      3540            0.0000000000
     10735      3552  TIP3      OH2            17.1737296015       10.3883242534      -20.4537246635  SOLV      3541            0.0000000000
     10736      3552  TIP3      H1             18.0876496015       10.4672142534      -20.1803346635  SOLV      3541            0.0000000000
     10737      3552  TIP3      H2             17.1810396015        9.7012842534      -21.1201646635  SOLV      3541            0.0000000000
     10738      3553  TIP3      OH2            15.8227896015       15.7811742534      -15.3763346635  SOLV      3542            0.0000000000
     10739      3553  TIP3      H1             15.1754996015       15.3193442534      -15.9092146635  SOLV      3542            0.0000000000
     10740      3553  TIP3      H2             16.1772496015       15.1095042534      -14.7937146635  SOLV      3542            0.0000000000
     10741      3554  TIP3      OH2            16.6927096015       13.8618742534      -13.5717146635  SOLV      3543            0.0000000000
     10742      3554  TIP3      H1             16.3583896015       12.9816042534      -13.3996946635  SOLV      3543            0.0000000000
     10743      3554  TIP3      H2             16.9149496015       14.2073742534      -12.7071546635  SOLV      3543            0.0000000000
     10744      3555  TIP3      OH2            34.2411896015       14.6715142534      -10.5912346635  SOLV      3544            0.0000000000
     10745      3555  TIP3      H1             34.2198596015       14.8563542534       -9.6522946635  SOLV      3544            0.0000000000
     10746      3555  TIP3      H2             34.9318096015       15.2399142534      -10.9320946635  SOLV      3544            0.0000000000
     10747      3556  TIP3      OH2            33.8044796015       14.2386242534       -7.6693246635  SOLV      3545            0.0000000000
     10748      3556  TIP3      H1             33.3173496015       13.5030342534       -8.0405846635  SOLV      3545            0.0000000000
     10749      3556  TIP3      H2             34.3537496015       13.8450142534       -6.9913846635  SOLV      3545            0.0000000000
     10750      3557  TIP3      OH2            32.2552096015       10.0284342534       -3.0312946635  SOLV      3546            0.0000000000
     10751      3557  TIP3      H1             31.3893196015        9.9234042534       -2.6370646635  SOLV      3546            0.0000000000
     10752      3557  TIP3      H2             32.6317996015       10.7867642534       -2.5848246635  SOLV      3546            0.0000000000
     10753      3558  TIP3      OH2            33.5561796015        8.2848042534      -17.5170446635  SOLV      3547            0.0000000000
     10754      3558  TIP3      H1             34.4063196015        8.7058942534      -17.3898846635  SOLV      3547            0.0000000000
     10755      3558  TIP3      H2             33.5616896015        7.5448142534      -16.9099046635  SOLV      3547            0.0000000000
     10756      3559  TIP3      OH2            33.9507396015        6.3385442534      -15.6934746635  SOLV      3548            0.0000000000
     10757      3559  TIP3      H1             33.2241996015        5.8588042534      -15.2957146635  SOLV      3548            0.0000000000
     10758      3559  TIP3      H2             34.5320696015        6.5440142534      -14.9613146635  SOLV      3548            0.0000000000
     10759      3560  TIP3      OH2            33.7098596015        9.1232942534      -10.7457146635  SOLV      3549            0.0000000000
     10760      3560  TIP3      H1             34.5432796015        8.7452942534      -11.0263546635  SOLV      3549            0.0000000000
     10761      3560  TIP3      H2             33.8218896015       10.0664142534      -10.8648046635  SOLV      3549            0.0000000000
     10762      3561  TIP3      OH2            32.1960896015       12.0010442534       -8.4388746635  SOLV      3550            0.0000000000
     10763      3561  TIP3      H1             31.5486196015       12.3261942534       -7.8133546635  SOLV      3550            0.0000000000
     10764      3561  TIP3      H2             31.6784896015       11.5608142534       -9.1130446635  SOLV      3550            0.0000000000
     10765      3562  TIP3      OH2            34.2190496015        6.2393942534      -19.3023446635  SOLV      3551            0.0000000000
     10766      3562  TIP3      H1             33.6971596015        6.5958042534      -20.0212546635  SOLV      3551            0.0000000000
     10767      3562  TIP3      H2             34.1859696015        6.9141742534      -18.6242546635  SOLV      3551            0.0000000000
     10768      3563  TIP3      OH2            32.5679496015        3.4789542534      -20.7516346635  SOLV      3552            0.0000000000
     10769      3563  TIP3      H1             32.6643896015        4.1456542534      -21.4316646635  SOLV      3552            0.0000000000
     10770      3563  TIP3      H2             32.4279096015        2.6635842534      -21.2330846635  SOLV      3552            0.0000000000
     10771      3564  TIP3      OH2            31.7374196015        4.8591942534      -15.1306046635  SOLV      3553            0.0000000000
     10772      3564  TIP3      H1             31.5872996015        3.9140542534      -15.1508246635  SOLV      3553            0.0000000000
     10773      3564  TIP3      H2             31.3838696015        5.1403342534      -14.2866946635  SOLV      3553            0.0000000000
     10774      3565  TIP3      OH2            16.7726596015        6.9374142534      -11.1202246635  SOLV      3554            0.0000000000
     10775      3565  TIP3      H1             16.9569496015        6.8555842534      -12.0559346635  SOLV      3554            0.0000000000
     10776      3565  TIP3      H2             17.6219496015        6.8131142534      -10.6965846635  SOLV      3554            0.0000000000
     10777      3566  TIP3      OH2            32.5937096015        6.8295242534       -5.4917746635  SOLV      3555            0.0000000000
     10778      3566  TIP3      H1             33.1764396015        6.0947542534       -5.3000546635  SOLV      3555            0.0000000000
     10779      3566  TIP3      H2             33.1576396015        7.6015542534       -5.4451946635  SOLV      3555            0.0000000000
     10780      3567  TIP3      OH2            34.0904196015        4.7321042534       -4.8072346635  SOLV      3556            0.0000000000
     10781      3567  TIP3      H1             33.2270896015        4.3533142534       -4.9727646635  SOLV      3556            0.0000000000
     10782      3567  TIP3      H2             34.6947896015        3.9935842534       -4.8816546635  SOLV      3556            0.0000000000
     10783      3568  TIP3      OH2            31.8153296015        0.8869342534      -21.6340846635  SOLV      3557            0.0000000000
     10784      3568  TIP3      H1             32.4259096015        0.5156142534      -20.9972646635  SOLV      3557            0.0000000000
     10785      3568  TIP3      H2             30.9784796015        0.4656242534      -21.4380846635  SOLV      3557            0.0000000000
     10786      3569  TIP3      OH2            31.4478996015        2.4417742534      -16.6680946635  SOLV      3558            0.0000000000
     10787      3569  TIP3      H1             31.7276096015        1.5348142534      -16.5439246635  SOLV      3558            0.0000000000
     10788      3569  TIP3      H2             32.2070696015        2.8759242534      -17.0571746635  SOLV      3558            0.0000000000
     10789      3570  TIP3      OH2            32.0597296015        3.0235142534      -11.2322046635  SOLV      3559            0.0000000000
     10790      3570  TIP3      H1             32.9925296015        3.2355042534      -11.2666046635  SOLV      3559            0.0000000000
     10791      3570  TIP3      H2             31.8244796015        3.1247242534      -10.3099046635  SOLV      3559            0.0000000000
     10792      3571  TIP3      OH2            32.0889196015        3.7600442534       -8.4562646635  SOLV      3560            0.0000000000
     10793      3571  TIP3      H1             31.2460496015        4.0280842534       -8.0902846635  SOLV      3560            0.0000000000
     10794      3571  TIP3      H2             32.5313496015        4.5822342534       -8.6671546635  SOLV      3560            0.0000000000
     10795      3572  TIP3      OH2            34.3720796015       -2.2599357466       -3.1027646635  SOLV      3561            0.0000000000
     10796      3572  TIP3      H1             34.7217796015       -2.9135857466       -3.7082946635  SOLV      3561            0.0000000000
     10797      3572  TIP3      H2             34.5190296015       -1.4225257466       -3.5425046635  SOLV      3561            0.0000000000
     10798      3573  TIP3      OH2            32.0613796015       -0.2952957466      -16.6198946635  SOLV      3562            0.0000000000
     10799      3573  TIP3      H1             32.2438796015       -0.7441457466      -15.7943946635  SOLV      3562            0.0000000000
     10800      3573  TIP3      H2             31.4616696015       -0.8798557466      -17.0834346635  SOLV      3562            0.0000000000
     10801      3574  TIP3      OH2            17.5913896015        0.5200742534      -12.0880546635  SOLV      3563            0.0000000000
     10802      3574  TIP3      H1             18.0365496015       -0.2716757466      -11.7860846635  SOLV      3563            0.0000000000
     10803      3574  TIP3      H2             18.0576896015        1.2365942534      -11.6574946635  SOLV      3563            0.0000000000
     10804      3575  TIP3      OH2            15.8954196015        3.5193742534      -11.0190346635  SOLV      3564            0.0000000000
     10805      3575  TIP3      H1             16.3873996015        3.2984242534      -11.8098346635  SOLV      3564            0.0000000000
     10806      3575  TIP3      H2             16.2575096015        4.3597142534      -10.7380846635  SOLV      3564            0.0000000000
     10807      3576  TIP3      OH2            33.8917996015       -0.1504757466       -4.7536346635  SOLV      3565            0.0000000000
     10808      3576  TIP3      H1             32.9743696015        0.1202342534       -4.7892846635  SOLV      3565            0.0000000000
     10809      3576  TIP3      H2             34.0147396015       -0.6856357466       -5.5376646635  SOLV      3565            0.0000000000
     10810      3577  TIP3      OH2            33.9279996015       -0.2274857466      -20.0918646635  SOLV      3566            0.0000000000
     10811      3577  TIP3      H1             34.3402596015       -0.9489157466      -20.5670646635  SOLV      3566            0.0000000000
     10812      3577  TIP3      H2             34.6096496015        0.4419742534      -20.0334346635  SOLV      3566            0.0000000000
     10813      3578  TIP3      OH2            16.2090696015       -0.2227157466      -16.9647946635  SOLV      3567            0.0000000000
     10814      3578  TIP3      H1             15.2839096015       -0.0140557466      -17.0942446635  SOLV      3567            0.0000000000
     10815      3578  TIP3      H2             16.6630596015        0.2613642534      -17.6545646635  SOLV      3567            0.0000000000
     10816      3579  TIP3      OH2            30.9797896015       14.7614542534      -15.0190546635  SOLV      3568            0.0000000000
     10817      3579  TIP3      H1             31.6320796015       14.4136642534      -15.6271446635  SOLV      3568            0.0000000000
     10818      3579  TIP3      H2             31.4901696015       15.2497742534      -14.3730846635  SOLV      3568            0.0000000000
     10819      3580  TIP3      OH2            16.1726096015       -1.4848157466       -8.6205446635  SOLV      3569            0.0000000000
     10820      3580  TIP3      H1             15.5076596015       -1.7307857466       -7.9774546635  SOLV      3569            0.0000000000
     10821      3580  TIP3      H2             15.7297396015       -0.8627757466       -9.1977446635  SOLV      3569            0.0000000000
     10822      3581  TIP3      OH2            18.3645396015       11.6905942534       -4.4759646635  SOLV      3570            0.0000000000
     10823      3581  TIP3      H1             17.5437896015       11.8652442534       -4.9364946635  SOLV      3570            0.0000000000
     10824      3581  TIP3      H2             18.1123196015       11.6170642534       -3.5555246635  SOLV      3570            0.0000000000
     10825      3582  TIP3      OH2            21.3188296015       12.6647142534       -8.2175646635  SOLV      3571            0.0000000000
     10826      3582  TIP3      H1             20.8939396015       13.4745642534       -8.5001046635  SOLV      3571            0.0000000000
     10827      3582  TIP3      H2             22.2231096015       12.7501242534       -8.5195846635  SOLV      3571            0.0000000000
     10828      3583  TIP3      OH2            25.6299696015       14.0637142534       -5.2581946635  SOLV      3572            0.0000000000
     10829      3583  TIP3      H1             25.8147196015       13.7303242534       -4.3801646635  SOLV      3572            0.0000000000
     10830      3583  TIP3      H2             26.4764196015       14.3735742534       -5.5802746635  SOLV      3572            0.0000000000
     10831      3584  TIP3      OH2            27.9750096015       15.3496042534       -6.0140546635  SOLV      3573            0.0000000000
     10832      3584  TIP3      H1             28.6518996015       14.7168342534       -6.2541346635  SOLV      3573            0.0000000000
     10833      3584  TIP3      H2             28.2968896015       15.7506542534       -5.2067246635  SOLV      3573            0.0000000000
     10834      3585  TIP3      OH2            32.8923896015       -2.0608457466       -6.9345546635  SOLV      3574            0.0000000000
     10835      3585  TIP3      H1             32.0797396015       -1.7358157466       -7.3220846635  SOLV      3574            0.0000000000
     10836      3585  TIP3      H2             33.1252396015       -2.8209957466       -7.4676446635  SOLV      3574            0.0000000000
     10837      3586  TIP3      OH2            18.7204996015       15.9211042534       -8.1700346635  SOLV      3575            0.0000000000
     10838      3586  TIP3      H1             18.0001396015       16.3612042534       -8.6212646635  SOLV      3575            0.0000000000
     10839      3586  TIP3      H2             18.3548996015       15.6705742534       -7.3216346635  SOLV      3575            0.0000000000
     10840      3587  TIP3      OH2            21.1877596015       15.5214942534       -9.1403146635  SOLV      3576            0.0000000000
     10841      3587  TIP3      H1             20.3229796015       15.5933442534       -8.7363046635  SOLV      3576            0.0000000000
     10842      3587  TIP3      H2             21.1326596015       16.0682242534       -9.9240646635  SOLV      3576            0.0000000000
     10843      3588  TIP3      OH2            25.8983196015       15.4093842534       -9.9647146635  SOLV      3577            0.0000000000
     10844      3588  TIP3      H1             25.4417196015       15.9383542534      -10.6188746635  SOLV      3577            0.0000000000
     10845      3588  TIP3      H2             26.0611196015       16.0125242534       -9.2394846635  SOLV      3577            0.0000000000
     10846      3589  TIP3      OH2            28.2259496015       14.2873442534       -9.0196846635  SOLV      3578            0.0000000000
     10847      3589  TIP3      H1             27.3213196015       14.4523642534       -9.2854746635  SOLV      3578            0.0000000000
     10848      3589  TIP3      H2             28.6548096015       15.1405642534       -9.0853446635  SOLV      3578            0.0000000000
     10849      3590  TIP3      OH2            30.8301396015       15.8572542534       -8.7249046635  SOLV      3579            0.0000000000
     10850      3590  TIP3      H1             30.6483396015       16.7731442534       -8.9354146635  SOLV      3579            0.0000000000
     10851      3590  TIP3      H2             31.0069196015       15.4469642534       -9.5714446635  SOLV      3579            0.0000000000
     10852      3591  TIP3      OH2            18.1353096015       14.5443542534      -11.2598546635  SOLV      3580            0.0000000000
     10853      3591  TIP3      H1             18.1169096015       14.1188642534      -10.4026246635  SOLV      3580            0.0000000000
     10854      3591  TIP3      H2             18.9400996015       14.2258542534      -11.6686346635  SOLV      3580            0.0000000000
     10855      3592  TIP3      OH2            20.2766196015       13.2542242534      -12.6048646635  SOLV      3581            0.0000000000
     10856      3592  TIP3      H1             20.0576896015       12.3379642534      -12.4352646635  SOLV      3581            0.0000000000
     10857      3592  TIP3      H2             21.1008396015       13.3942642534      -12.1387246635  SOLV      3581            0.0000000000
     10858      3593  TIP3      OH2            22.8138696015       13.7241542534      -11.7560646635  SOLV      3582            0.0000000000
     10859      3593  TIP3      H1             23.0264396015       12.8360542534      -12.0429746635  SOLV      3582            0.0000000000
     10860      3593  TIP3      H2             22.8783796015       13.6899242534      -10.8016646635  SOLV      3582            0.0000000000
     10861      3594  TIP3      OH2            26.3222396015       -0.6117857466      -12.6117346635  SOLV      3583            0.0000000000
     10862      3594  TIP3      H1             25.6479196015       -1.2412257466      -12.3561546635  SOLV      3583            0.0000000000
     10863      3594  TIP3      H2             26.8861596015       -1.0958957466      -13.2149446635  SOLV      3583            0.0000000000
     10864      3595  TIP3      OH2            18.6489896015       -1.9777557466      -14.7897446635  SOLV      3584            0.0000000000
     10865      3595  TIP3      H1             17.8719696015       -2.2122657466      -15.2971546635  SOLV      3584            0.0000000000
     10866      3595  TIP3      H2             19.1793496015       -2.7745457466      -14.7809446635  SOLV      3584            0.0000000000
     10867      3596  TIP3      OH2            17.4853296015       -2.1799457466      -18.9861346635  SOLV      3585            0.0000000000
     10868      3596  TIP3      H1             17.9243996015       -1.5688957466      -19.5777846635  SOLV      3585            0.0000000000
     10869      3596  TIP3      H2             16.8515696015       -1.6415357466      -18.5121346635  SOLV      3585            0.0000000000
     10870      3597  TIP3      OH2            23.2282496015       -2.0510457466      -14.9764346635  SOLV      3586            0.0000000000
     10871      3597  TIP3      H1             24.1025896015       -1.6626157466      -15.0060046635  SOLV      3586            0.0000000000
     10872      3597  TIP3      H2             23.0923296015       -2.2662657466      -14.0537146635  SOLV      3586            0.0000000000
     10873      3598  TIP3      OH2            28.7850896015       -2.0210657466      -13.3272646635  SOLV      3587            0.0000000000
     10874      3598  TIP3      H1             28.8612496015       -1.9259057466      -14.2766646635  SOLV      3587            0.0000000000
     10875      3598  TIP3      H2             28.5100096015       -2.9287757466      -13.1983546635  SOLV      3587            0.0000000000
     10876      3599  TIP3      OH2            30.1383496015       -1.9952857466      -17.6347646635  SOLV      3588            0.0000000000
     10877      3599  TIP3      H1             29.4354596015       -1.3803657466      -17.8446246635  SOLV      3588            0.0000000000
     10878      3599  TIP3      H2             29.6934896015       -2.8326157466      -17.5036746635  SOLV      3588            0.0000000000
     10879      3600  TIP3      OH2            17.3862796015       13.7682742534      -18.0886246635  SOLV      3589            0.0000000000
     10880      3600  TIP3      H1             16.7012696015       13.7301642534      -18.7561146635  SOLV      3589            0.0000000000
     10881      3600  TIP3      H2             17.3899996015       14.6810342534      -17.8004146635  SOLV      3589            0.0000000000
     10882      3601  TIP3      OH2            19.3462396015       -0.2637957466      -20.5437246635  SOLV      3590            0.0000000000
     10883      3601  TIP3      H1             19.8375796015       -0.8935557466      -21.0711746635  SOLV      3590            0.0000000000
     10884      3601  TIP3      H2             19.9698696015        0.0321442534      -19.8806046635  SOLV      3590            0.0000000000
     10885      3602  TIP3      OH2            24.3722496015        0.0293542534      -18.0866746635  SOLV      3591            0.0000000000
     10886      3602  TIP3      H1             24.5503796015       -0.6173257466      -17.4038146635  SOLV      3591            0.0000000000
     10887      3602  TIP3      H2             24.3188696015        0.8631242534      -17.6195646635  SOLV      3591            0.0000000000
     10888      3603  TIP3      OH2            26.2506296015       14.9777642534      -19.6910046635  SOLV      3592            0.0000000000
     10889      3603  TIP3      H1             27.1166496015       15.3445042534      -19.8691846635  SOLV      3592            0.0000000000
     10890      3603  TIP3      H2             26.0039096015       14.5385642534      -20.5049246635  SOLV      3592            0.0000000000
     10891      3604  TIP3      OH2            32.9595896015       14.5407942534      -17.0118946635  SOLV      3593            0.0000000000
     10892      3604  TIP3      H1             32.7652996015       13.7930042534      -17.5769346635  SOLV      3593            0.0000000000
     10893      3604  TIP3      H2             32.9205996015       15.2988042534      -17.5951046635  SOLV      3593            0.0000000000
     10894      3605  TIP3      OH2            18.6067896015       -1.4635657466       -5.2721246635  SOLV      3594            0.0000000000
     10895      3605  TIP3      H1             18.2406096015       -2.2293057466       -4.8296546635  SOLV      3594            0.0000000000
     10896      3605  TIP3      H2             19.5196396015       -1.4345457466       -4.9856146635  SOLV      3594            0.0000000000
     10897      3606  TIP3      OH2            20.5798696015       -2.1131257466       -3.7364146635  SOLV      3595            0.0000000000
     10898      3606  TIP3      H1             21.4782296015       -2.3871057466       -3.9210746635  SOLV      3595            0.0000000000
     10899      3606  TIP3      H2             20.1931796015       -2.8555257466       -3.2721546635  SOLV      3595            0.0000000000
     10900      3607  TIP3      OH2            19.2043996015       14.6883542534      -21.0634146635  SOLV      3596            0.0000000000
     10901      3607  TIP3      H1             18.9368596015       14.9746442534      -20.1901046635  SOLV      3596            0.0000000000
     10902      3607  TIP3      H2             19.9756596015       14.1422742534      -20.9111646635  SOLV      3596            0.0000000000
     10903      3608  TIP3      OH2            29.0010996015       -2.7805957466       -3.5541346635  SOLV      3597            0.0000000000
     10904      3608  TIP3      H1             29.0778196015       -3.2065257466       -2.7003646635  SOLV      3597            0.0000000000
     10905      3608  TIP3      H2             29.8947596015       -2.7671257466       -3.8967846635  SOLV      3597            0.0000000000
     10906      3609  TIP3      OH2            32.1772096015       13.2920342534       -4.8617146635  SOLV      3598            0.0000000000
     10907      3609  TIP3      H1             31.3953996015       13.1058342534       -5.3816546635  SOLV      3598            0.0000000000
     10908      3609  TIP3      H2             32.1051996015       14.2214642534       -4.6444646635  SOLV      3598            0.0000000000
     10909      3610  TIP3      OH2            37.8848796015        6.0477542534       -9.8191846635  SOLV      3599            0.0000000000
     10910      3610  TIP3      H1             37.9260896015        5.4220842534       -9.0959446635  SOLV      3599            0.0000000000
     10911      3610  TIP3      H2             38.5876496015        6.6716142534       -9.6371446635  SOLV      3599            0.0000000000
     10912      3611  TIP3      OH2            38.8081896015       10.4976442534      -11.2842746635  SOLV      3600            0.0000000000
     10913      3611  TIP3      H1             38.4387096015        9.6956942534      -11.6538446635  SOLV      3600            0.0000000000
     10914      3611  TIP3      H2             39.7492996015       10.3291342534      -11.2379346635  SOLV      3600            0.0000000000
     10915      3612  TIP3      OH2            35.4182396015        4.1579042534      -15.8913946635  SOLV      3601            0.0000000000
     10916      3612  TIP3      H1             34.9705796015        5.0037742534      -15.9097446635  SOLV      3601            0.0000000000
     10917      3612  TIP3      H2             34.8573596015        3.5783242534      -16.4068846635  SOLV      3601            0.0000000000
     10918      3613  TIP3      OH2            36.1288496015        6.3198642534      -13.7655946635  SOLV      3602            0.0000000000
     10919      3613  TIP3      H1             36.3421996015        5.5500242534      -13.2382946635  SOLV      3602            0.0000000000
     10920      3613  TIP3      H2             36.8666096015        6.4095342534      -14.3688346635  SOLV      3602            0.0000000000
     10921      3614  TIP3      OH2            36.8214996015        3.7581442534      -12.6439746635  SOLV      3603            0.0000000000
     10922      3614  TIP3      H1             37.4751596015        3.2083142534      -12.2119646635  SOLV      3603            0.0000000000
     10923      3614  TIP3      H2             36.8454296015        3.4840442534      -13.5607746635  SOLV      3603            0.0000000000
     10924      3615  TIP3      OH2            39.0115396015        0.2794042534       -9.3320346635  SOLV      3604            0.0000000000
     10925      3615  TIP3      H1             38.7927096015        0.8094642534      -10.0984346635  SOLV      3604            0.0000000000
     10926      3615  TIP3      H2             38.3436296015        0.5059542534       -8.6848946635  SOLV      3604            0.0000000000
     10927      3616  TIP3      OH2            38.6052696015        2.1715842534      -11.3798146635  SOLV      3605            0.0000000000
     10928      3616  TIP3      H1             39.2188996015        2.8043442534      -11.0065746635  SOLV      3605            0.0000000000
     10929      3616  TIP3      H2             39.1173396015        1.6990842534      -12.0361246635  SOLV      3605            0.0000000000
     10930      3617  TIP3      OH2            39.9881096015        9.9192742534       -8.2575146635  SOLV      3606            0.0000000000
     10931      3617  TIP3      H1             39.9828696015       10.7986242534       -8.6355846635  SOLV      3606            0.0000000000
     10932      3617  TIP3      H2             39.1345196015        9.8356842534       -7.8325246635  SOLV      3606            0.0000000000
     10933      3618  TIP3      OH2            36.1091996015        9.5900642534      -17.4755846635  SOLV      3607            0.0000000000
     10934      3618  TIP3      H1             35.8372896015        9.8191642534      -18.3642946635  SOLV      3607            0.0000000000
     10935      3618  TIP3      H2             36.1547696015       10.4279442534      -17.0150546635  SOLV      3607            0.0000000000
     10936      3619  TIP3      OH2            40.3556396015        7.2624242534      -14.5448746635  SOLV      3608            0.0000000000
     10937      3619  TIP3      H1             40.0251596015        6.8917642534      -15.3631746635  SOLV      3608            0.0000000000
     10938      3619  TIP3      H2             40.9440496015        6.5918242534      -14.1980446635  SOLV      3608            0.0000000000
     10939      3620  TIP3      OH2            38.5222496015        6.6283642534       -6.9656146635  SOLV      3609            0.0000000000
     10940      3620  TIP3      H1             38.5925696015        7.2790442534       -6.2671146635  SOLV      3609            0.0000000000
     10941      3620  TIP3      H2             37.6314696015        6.7311142534       -7.3005246635  SOLV      3609            0.0000000000
     10942      3621  TIP3      OH2            39.8418496015       12.5017542534       -5.4308046635  SOLV      3610            0.0000000000
     10943      3621  TIP3      H1             39.8493796015       12.3657242534       -6.3782546635  SOLV      3610            0.0000000000
     10944      3621  TIP3      H2             38.9258896015       12.3845642534       -5.1788046635  SOLV      3610            0.0000000000
     10945      3622  TIP3      OH2            39.3459096015        6.3318542534      -16.9555946635  SOLV      3611            0.0000000000
     10946      3622  TIP3      H1             39.0540396015        7.1000242534      -17.4464646635  SOLV      3611            0.0000000000
     10947      3622  TIP3      H2             38.6714296015        5.6724742534      -17.1184546635  SOLV      3611            0.0000000000
     10948      3623  TIP3      OH2            35.4389196015        8.6947742534       -8.1406146635  SOLV      3612            0.0000000000
     10949      3623  TIP3      H1             34.9377596015        8.6667142534       -8.9556446635  SOLV      3612            0.0000000000
     10950      3623  TIP3      H2             35.4442896015        7.7890942534       -7.8308846635  SOLV      3612            0.0000000000
     10951      3624  TIP3      OH2            35.1891896015       11.4751542534      -11.2565946635  SOLV      3613            0.0000000000
     10952      3624  TIP3      H1             36.1352496015       11.3308542534      -11.2756446635  SOLV      3613            0.0000000000
     10953      3624  TIP3      H2             35.0768196015       12.2594342534      -10.7194746635  SOLV      3613            0.0000000000
     10954      3625  TIP3      OH2            38.4333996015       14.2761142534      -15.1111246635  SOLV      3614            0.0000000000
     10955      3625  TIP3      H1             38.5854396015       13.9281542534      -14.2324746635  SOLV      3614            0.0000000000
     10956      3625  TIP3      H2             37.5824396015       13.9198442534      -15.3664046635  SOLV      3614            0.0000000000
     10957      3626  TIP3      OH2            37.6879696015       10.0183142534       -7.0973346635  SOLV      3615            0.0000000000
     10958      3626  TIP3      H1             37.9040996015        9.6568742534       -6.2377546635  SOLV      3615            0.0000000000
     10959      3626  TIP3      H2             36.8324396015        9.6436942534       -7.3069846635  SOLV      3615            0.0000000000
     10960      3627  TIP3      OH2            40.3977796015        3.4538142534      -10.0068946635  SOLV      3616            0.0000000000
     10961      3627  TIP3      H1             39.7559896015        3.4135442534       -9.2978846635  SOLV      3616            0.0000000000
     10962      3627  TIP3      H2             40.4349796015        4.3802842534      -10.2445946635  SOLV      3616            0.0000000000
     10963      3628  TIP3      OH2            40.3946896015        3.6748242534      -15.0948946635  SOLV      3617            0.0000000000
     10964      3628  TIP3      H1             39.5019796015        3.3344342534      -15.1535146635  SOLV      3617            0.0000000000
     10965      3628  TIP3      H2             40.8453496015        3.2979142534      -15.8505746635  SOLV      3617            0.0000000000
     10966      3629  TIP3      OH2            38.1478296015        3.7741642534       -8.1396946635  SOLV      3618            0.0000000000
     10967      3629  TIP3      H1             38.1097696015        4.1743242534       -7.2709846635  SOLV      3618            0.0000000000
     10968      3629  TIP3      H2             37.6569396015        2.9574042534       -8.0494046635  SOLV      3618            0.0000000000
     10969      3630  TIP3      OH2            34.7559096015        0.8903442534      -14.2892246635  SOLV      3619            0.0000000000
     10970      3630  TIP3      H1             35.3866796015        0.8615542534      -13.5698346635  SOLV      3619            0.0000000000
     10971      3630  TIP3      H2             35.2053396015        0.4652142534      -15.0196346635  SOLV      3619            0.0000000000
     10972      3631  TIP3      OH2            36.0301196015        1.6365442534      -18.8651846635  SOLV      3620            0.0000000000
     10973      3631  TIP3      H1             36.5042896015        2.2275342534      -19.4500946635  SOLV      3620            0.0000000000
     10974      3631  TIP3      H2             35.3127596015        2.1668342534      -18.5181746635  SOLV      3620            0.0000000000
     10975      3632  TIP3      OH2            37.8045596015        2.7312042534      -15.1817246635  SOLV      3621            0.0000000000
     10976      3632  TIP3      H1             36.9153596015        2.8307542534      -15.5217646635  SOLV      3621            0.0000000000
     10977      3632  TIP3      H2             38.1010496015        1.8895042534      -15.5279346635  SOLV      3621            0.0000000000
     10978      3633  TIP3      OH2            40.1317596015        3.9256842534      -19.9586546635  SOLV      3622            0.0000000000
     10979      3633  TIP3      H1             39.5892696015        3.5460642534      -20.6498946635  SOLV      3622            0.0000000000
     10980      3633  TIP3      H2             40.9652496015        4.1201542534      -20.3872446635  SOLV      3622            0.0000000000
     10981      3634  TIP3      OH2            38.2668996015        8.4828742534       -4.8594946635  SOLV      3623            0.0000000000
     10982      3634  TIP3      H1             38.9991396015        8.7374642534       -4.2980446635  SOLV      3623            0.0000000000
     10983      3634  TIP3      H2             37.4867696015        8.6874142534       -4.3439546635  SOLV      3623            0.0000000000
     10984      3635  TIP3      OH2            38.5918696015        7.7862542534      -12.2530546635  SOLV      3624            0.0000000000
     10985      3635  TIP3      H1             39.3365896015        7.7838242534      -12.8544046635  SOLV      3624            0.0000000000
     10986      3635  TIP3      H2             38.6695296015        6.9626342534      -11.7715446635  SOLV      3624            0.0000000000
     10987      3636  TIP3      OH2            35.5998396015        6.2469442534       -6.9382046635  SOLV      3625            0.0000000000
     10988      3636  TIP3      H1             35.8226996015        5.8289042534       -6.1064546635  SOLV      3625            0.0000000000
     10989      3636  TIP3      H2             34.9978496015        5.6344442534       -7.3609246635  SOLV      3625            0.0000000000
     10990      3637  TIP3      OH2            36.7215796015        6.1664842534      -20.2616646635  SOLV      3626            0.0000000000
     10991      3637  TIP3      H1             37.3375696015        6.7932042534      -19.8821846635  SOLV      3626            0.0000000000
     10992      3637  TIP3      H2             35.8598396015        6.4824642534      -19.9900146635  SOLV      3626            0.0000000000
     10993      3638  TIP3      OH2            37.2337896015        1.0002142534       -7.3800646635  SOLV      3627            0.0000000000
     10994      3638  TIP3      H1             36.3410196015        1.3387542534       -7.4476646635  SOLV      3627            0.0000000000
     10995      3638  TIP3      H2             37.1350696015        0.1448242534       -6.9619846635  SOLV      3627            0.0000000000
     10996      3639  TIP3      OH2            36.8849896015       12.8046542534       -8.9451246635  SOLV      3628            0.0000000000
     10997      3639  TIP3      H1             37.1020196015       11.8728942534       -8.9761546635  SOLV      3628            0.0000000000
     10998      3639  TIP3      H2             37.1313396015       13.0791542534       -8.0618446635  SOLV      3628            0.0000000000
     10999      3640  TIP3      OH2            38.1366196015        8.0788642534      -18.7691046635  SOLV      3629            0.0000000000
     11000      3640  TIP3      H1             37.4505496015        8.4311142534      -18.2021346635  SOLV      3629            0.0000000000
     11001      3640  TIP3      H2             38.6594096015        8.8418242534      -19.0156746635  SOLV      3629            0.0000000000
     11002      3641  TIP3      OH2            37.0684296015        3.3570542534      -20.7563846635  SOLV      3630            0.0000000000
     11003      3641  TIP3      H1             37.0236896015        4.2963642534      -20.5776846635  SOLV      3630            0.0000000000
     11004      3641  TIP3      H2             36.1807496015        3.1215442534      -21.0261746635  SOLV      3630            0.0000000000
     11005      3642  TIP3      OH2            37.8766296015       -1.8612857466      -12.0832846635  SOLV      3631            0.0000000000
     11006      3642  TIP3      H1             37.6476096015       -1.8020357466      -13.0107846635  SOLV      3631            0.0000000000
     11007      3642  TIP3      H2             37.4339696015       -2.6527357466      -11.7768746635  SOLV      3631            0.0000000000
     11008      3643  TIP3      OH2            36.8069596015       12.0794242534      -15.9227046635  SOLV      3632            0.0000000000
     11009      3643  TIP3      H1             35.9748196015       12.5516942534      -15.8955646635  SOLV      3632            0.0000000000
     11010      3643  TIP3      H2             37.3527896015       12.5891842534      -16.5213946635  SOLV      3632            0.0000000000
     11011      3644  TIP3      OH2            36.0953296015       14.6917942534       -4.5929046635  SOLV      3633            0.0000000000
     11012      3644  TIP3      H1             36.6355496015       14.4751942534       -3.8329846635  SOLV      3633            0.0000000000
     11013      3644  TIP3      H2             35.6141296015       13.8863942534       -4.7826546635  SOLV      3633            0.0000000000
     11014      3645  TIP3      OH2            36.0022796015        8.5022042534       -3.6384746635  SOLV      3634            0.0000000000
     11015      3645  TIP3      H1             36.1463296015        7.6002742534       -3.9248046635  SOLV      3634            0.0000000000
     11016      3645  TIP3      H2             35.2300196015        8.7884142534       -4.1262446635  SOLV      3634            0.0000000000
     11017      3646  TIP3      OH2            36.8349296015        5.7025342534       -4.2185446635  SOLV      3635            0.0000000000
     11018      3646  TIP3      H1             37.2430496015        4.8451942534       -4.3394846635  SOLV      3635            0.0000000000
     11019      3646  TIP3      H2             36.5746896015        5.7166642534       -3.2975146635  SOLV      3635            0.0000000000
     11020      3647  TIP3      OH2            39.5999596015        3.2645342534       -3.8503846635  SOLV      3636            0.0000000000
     11021      3647  TIP3      H1             38.8328596015        2.7320142534       -4.0606246635  SOLV      3636            0.0000000000
     11022      3647  TIP3      H2             40.2788596015        2.9545742534       -4.4497546635  SOLV      3636            0.0000000000
     11023      3648  TIP3      OH2            37.7802396015        1.1849142534       -4.1459146635  SOLV      3637            0.0000000000
     11024      3648  TIP3      H1             37.9919796015        0.4785242534       -4.7561646635  SOLV      3637            0.0000000000
     11025      3648  TIP3      H2             37.6689896015        0.7475142534       -3.3017946635  SOLV      3637            0.0000000000
     11026      3649  TIP3      OH2            34.6787896015       15.7811742534      -15.3763346635  SOLV      3638            0.0000000000
     11027      3649  TIP3      H1             34.0314996015       15.3193442534      -15.9092146635  SOLV      3638            0.0000000000
     11028      3649  TIP3      H2             35.0332496015       15.1095042534      -14.7937146635  SOLV      3638            0.0000000000
     11029      3650  TIP3      OH2            35.5487096015       13.8618742534      -13.5717146635  SOLV      3639            0.0000000000
     11030      3650  TIP3      H1             35.2143896015       12.9816042534      -13.3996946635  SOLV      3639            0.0000000000
     11031      3650  TIP3      H2             35.7709496015       14.2073742534      -12.7071546635  SOLV      3639            0.0000000000
     11032      3651  TIP3      OH2            35.6286596015        6.9374142534      -11.1202246635  SOLV      3640            0.0000000000
     11033      3651  TIP3      H1             35.8129496015        6.8555842534      -12.0559346635  SOLV      3640            0.0000000000
     11034      3651  TIP3      H2             36.4779496015        6.8131142534      -10.6965846635  SOLV      3640            0.0000000000
     11035      3652  TIP3      OH2            35.2261396015        2.2079142534       -4.9793446635  SOLV      3641            0.0000000000
     11036      3652  TIP3      H1             36.1456296015        2.0857442534       -4.7430346635  SOLV      3641            0.0000000000
     11037      3652  TIP3      H2             34.7765896015        1.4578842534       -4.5899946635  SOLV      3641            0.0000000000
     11038      3653  TIP3      OH2            36.4473896015        0.5200742534      -12.0880546635  SOLV      3642            0.0000000000
     11039      3653  TIP3      H1             36.8925496015       -0.2716757466      -11.7860846635  SOLV      3642            0.0000000000
     11040      3653  TIP3      H2             36.9136896015        1.2365942534      -11.6574946635  SOLV      3642            0.0000000000
     11041      3654  TIP3      OH2            34.7514196015        3.5193742534      -11.0190346635  SOLV      3643            0.0000000000
     11042      3654  TIP3      H1             35.2433996015        3.2984242534      -11.8098346635  SOLV      3643            0.0000000000
     11043      3654  TIP3      H2             35.1135096015        4.3597142534      -10.7380846635  SOLV      3643            0.0000000000
     11044      3655  TIP3      OH2            35.0650696015       -0.2227157466      -16.9647946635  SOLV      3644            0.0000000000
     11045      3655  TIP3      H1             34.1399096015       -0.0140557466      -17.0942446635  SOLV      3644            0.0000000000
     11046      3655  TIP3      H2             35.5190596015        0.2613642534      -17.6545646635  SOLV      3644            0.0000000000
     11047      3656  TIP3      OH2            35.0286096015       -1.4848157466       -8.6205446635  SOLV      3645            0.0000000000
     11048      3656  TIP3      H1             34.3636596015       -1.7307857466       -7.9774546635  SOLV      3645            0.0000000000
     11049      3656  TIP3      H2             34.5857396015       -0.8627757466       -9.1977446635  SOLV      3645            0.0000000000
     11050      3657  TIP3      OH2            37.2205396015       11.6905942534       -4.4759646635  SOLV      3646            0.0000000000
     11051      3657  TIP3      H1             36.3997896015       11.8652442534       -4.9364946635  SOLV      3646            0.0000000000
     11052      3657  TIP3      H2             36.9683196015       11.6170642534       -3.5555246635  SOLV      3646            0.0000000000
     11053      3658  TIP3      OH2            40.1748296015       12.6647142534       -8.2175646635  SOLV      3647            0.0000000000
     11054      3658  TIP3      H1             39.7499396015       13.4745642534       -8.5001046635  SOLV      3647            0.0000000000
     11055      3658  TIP3      H2             41.0791096015       12.7501242534       -8.5195846635  SOLV      3647            0.0000000000
     11056      3659  TIP3      OH2            37.5764996015       15.9211042534       -8.1700346635  SOLV      3648            0.0000000000
     11057      3659  TIP3      H1             36.8561396015       16.3612042534       -8.6212646635  SOLV      3648            0.0000000000
     11058      3659  TIP3      H2             37.2108996015       15.6705742534       -7.3216346635  SOLV      3648            0.0000000000
     11059      3660  TIP3      OH2            40.0437596015       15.5214942534       -9.1403146635  SOLV      3649            0.0000000000
     11060      3660  TIP3      H1             39.1789796015       15.5933442534       -8.7363046635  SOLV      3649            0.0000000000
     11061      3660  TIP3      H2             39.9886596015       16.0682242534       -9.9240646635  SOLV      3649            0.0000000000
     11062      3661  TIP3      OH2            36.9913096015       14.5443542534      -11.2598546635  SOLV      3650            0.0000000000
     11063      3661  TIP3      H1             36.9729096015       14.1188642534      -10.4026246635  SOLV      3650            0.0000000000
     11064      3661  TIP3      H2             37.7960996015       14.2258542534      -11.6686346635  SOLV      3650            0.0000000000
     11065      3662  TIP3      OH2            39.1326196015       13.2542242534      -12.6048646635  SOLV      3651            0.0000000000
     11066      3662  TIP3      H1             38.9136896015       12.3379642534      -12.4352646635  SOLV      3651            0.0000000000
     11067      3662  TIP3      H2             39.9568396015       13.3942642534      -12.1387246635  SOLV      3651            0.0000000000
     11068      3663  TIP3      OH2            37.5049896015       -1.9777557466      -14.7897446635  SOLV      3652            0.0000000000
     11069      3663  TIP3      H1             36.7279696015       -2.2122657466      -15.2971546635  SOLV      3652            0.0000000000
     11070      3663  TIP3      H2             38.0353496015       -2.7745457466      -14.7809446635  SOLV      3652            0.0000000000
     11071      3664  TIP3      OH2            36.3413296015       -2.1799457466      -18.9861346635  SOLV      3653            0.0000000000
     11072      3664  TIP3      H1             36.7803996015       -1.5688957466      -19.5777846635  SOLV      3653            0.0000000000
     11073      3664  TIP3      H2             35.7075696015       -1.6415357466      -18.5121346635  SOLV      3653            0.0000000000
     11074      3665  TIP3      OH2            36.2422796015       13.7682742534      -18.0886246635  SOLV      3654            0.0000000000
     11075      3665  TIP3      H1             35.5572696015       13.7301642534      -18.7561146635  SOLV      3654            0.0000000000
     11076      3665  TIP3      H2             36.2459996015       14.6810342534      -17.8004146635  SOLV      3654            0.0000000000
     11077      3666  TIP3      OH2            38.2022396015       -0.2637957466      -20.5437246635  SOLV      3655            0.0000000000
     11078      3666  TIP3      H1             38.6935796015       -0.8935557466      -21.0711746635  SOLV      3655            0.0000000000
     11079      3666  TIP3      H2             38.8258696015        0.0321442534      -19.8806046635  SOLV      3655            0.0000000000
     11080      3667  TIP3      OH2            37.4627896015       -1.4635657466       -5.2721246635  SOLV      3656            0.0000000000
     11081      3667  TIP3      H1             37.0966096015       -2.2293057466       -4.8296546635  SOLV      3656            0.0000000000
     11082      3667  TIP3      H2             38.3756396015       -1.4345457466       -4.9856146635  SOLV      3656            0.0000000000
     11083      3668  TIP3      OH2           -28.8407503985       26.0344742534      -14.8309946635  SOLV      3657            0.0000000000
     11084      3668  TIP3      H1            -28.7516403985       26.9782942534      -14.9632846635  SOLV      3657            0.0000000000
     11085      3668  TIP3      H2            -29.4789903985       25.7591142534      -15.4890546635  SOLV      3657            0.0000000000
     11086      3669  TIP3      OH2           -29.9076203985       25.2895442534      -11.4121746635  SOLV      3658            0.0000000000
     11087      3669  TIP3      H1            -29.9458703985       24.6431742534      -10.7072146635  SOLV      3658            0.0000000000
     11088      3669  TIP3      H2            -30.2299703985       24.8229842534      -12.1833046635  SOLV      3658            0.0000000000
     11089      3670  TIP3      OH2           -26.2016003985       28.2285842534      -13.1106646635  SOLV      3659            0.0000000000
     11090      3670  TIP3      H1            -26.6423303985       27.5081842534      -12.6601046635  SOLV      3659            0.0000000000
     11091      3670  TIP3      H2            -26.2146303985       28.9493042534      -12.4808946635  SOLV      3659            0.0000000000
     11092      3671  TIP3      OH2           -22.8552003985       19.3232142534      -10.1454546635  SOLV      3660            0.0000000000
     11093      3671  TIP3      H1            -22.8059803985       19.9333342534       -9.4095446635  SOLV      3660            0.0000000000
     11094      3671  TIP3      H2            -22.4296903985       19.7843042534      -10.8683446635  SOLV      3660            0.0000000000
     11095      3672  TIP3      OH2           -28.3774803985       22.1159242534      -10.6785946635  SOLV      3661            0.0000000000
     11096      3672  TIP3      H1            -28.2348903985       21.1696242534      -10.6584346635  SOLV      3661            0.0000000000
     11097      3672  TIP3      H2            -28.4835803985       22.3229042534      -11.6071046635  SOLV      3661            0.0000000000
     11098      3673  TIP3      OH2           -27.5003803985       20.3481242534      -15.0052846635  SOLV      3662            0.0000000000
     11099      3673  TIP3      H1            -26.8539503985       20.0194442534      -14.3805246635  SOLV      3662            0.0000000000
     11100      3673  TIP3      H2            -26.9904403985       20.8660242534      -15.6281446635  SOLV      3662            0.0000000000
     11101      3674  TIP3      OH2           -22.4637403985       20.8011342534       -7.9094746635  SOLV      3663            0.0000000000
     11102      3674  TIP3      H1            -23.1522803985       21.4592042534       -8.0048146635  SOLV      3663            0.0000000000
     11103      3674  TIP3      H2            -22.4482803985       20.6039242534       -6.9729346635  SOLV      3663            0.0000000000
     11104      3675  TIP3      OH2           -25.7365403985       19.6390542534      -13.0246946635  SOLV      3664            0.0000000000
     11105      3675  TIP3      H1            -25.9517403985       18.8733942534      -12.4920946635  SOLV      3664            0.0000000000
     11106      3675  TIP3      H2            -25.0808003985       20.1115142534      -12.5118446635  SOLV      3664            0.0000000000
     11107      3676  TIP3      OH2           -25.6898303985       30.0676542534      -10.7627346635  SOLV      3665            0.0000000000
     11108      3676  TIP3      H1            -26.6314603985       30.1260442534      -10.6010446635  SOLV      3665            0.0000000000
     11109      3676  TIP3      H2            -25.4132203985       30.9737042534      -10.8997646635  SOLV      3665            0.0000000000
     11110      3677  TIP3      OH2           -25.3891303985       18.3541842534       -9.3453446635  SOLV      3666            0.0000000000
     11111      3677  TIP3      H1            -26.1252103985       18.9648942534       -9.3832146635  SOLV      3666            0.0000000000
     11112      3677  TIP3      H2            -24.7057303985       18.7690842534       -9.8717046635  SOLV      3666            0.0000000000
     11113      3678  TIP3      OH2           -32.3859903985       16.4409142534      -11.8795446635  SOLV      3667            0.0000000000
     11114      3678  TIP3      H1            -32.5035703985       15.4925142534      -11.9337146635  SOLV      3667            0.0000000000
     11115      3678  TIP3      H2            -33.2409803985       16.7735242534      -11.6064346635  SOLV      3667            0.0000000000
     11116      3679  TIP3      OH2           -27.4377103985       31.8490042534      -14.1375746635  SOLV      3668            0.0000000000
     11117      3679  TIP3      H1            -27.0124803985       31.1417942534      -14.6226146635  SOLV      3668            0.0000000000
     11118      3679  TIP3      H2            -27.1207103985       32.6502742534      -14.5543546635  SOLV      3668            0.0000000000
     11119      3680  TIP3      OH2           -26.2780603985       29.7498542534      -15.6289146635  SOLV      3669            0.0000000000
     11120      3680  TIP3      H1            -26.5355803985       29.0598642534      -16.2403246635  SOLV      3669            0.0000000000
     11121      3680  TIP3      H2            -26.2069803985       29.3069742534      -14.7833246635  SOLV      3669            0.0000000000
     11122      3681  TIP3      OH2           -24.5920403985       28.3165242534       -7.1515646635  SOLV      3670            0.0000000000
     11123      3681  TIP3      H1            -24.4524103985       27.7247742534       -7.8908646635  SOLV      3670            0.0000000000
     11124      3681  TIP3      H2            -24.4247603985       29.1891142534       -7.5076846635  SOLV      3670            0.0000000000
     11125      3682  TIP3      OH2           -30.1195003985       25.2784742534      -17.3789646635  SOLV      3671            0.0000000000
     11126      3682  TIP3      H1            -30.8309503985       25.8134442534      -17.7309146635  SOLV      3671            0.0000000000
     11127      3682  TIP3      H2            -29.4285403985       25.3336842534      -18.0390746635  SOLV      3671            0.0000000000
     11128      3683  TIP3      OH2           -30.0655803985       23.7359042534      -20.3404646635  SOLV      3672            0.0000000000
     11129      3683  TIP3      H1            -29.3645903985       23.7585942534      -19.6890646635  SOLV      3672            0.0000000000
     11130      3683  TIP3      H2            -29.7632903985       23.1078742534      -20.9965346635  SOLV      3672            0.0000000000
     11131      3684  TIP3      OH2           -22.7501103985       24.6563242534       -9.0855246635  SOLV      3673            0.0000000000
     11132      3684  TIP3      H1            -23.4027003985       25.3508842534       -8.9964346635  SOLV      3673            0.0000000000
     11133      3684  TIP3      H2            -22.2850803985       24.8664142534       -9.8953646635  SOLV      3673            0.0000000000
     11134      3685  TIP3      OH2           -26.7137303985       25.4878042534      -16.4273746635  SOLV      3674            0.0000000000
     11135      3685  TIP3      H1            -27.4456303985       25.7161742534      -15.8543146635  SOLV      3674            0.0000000000
     11136      3685  TIP3      H2            -26.2665103985       24.7740742534      -15.9726246635  SOLV      3674            0.0000000000
     11137      3686  TIP3      OH2           -26.8163803985       23.6620642534       -7.3596746635  SOLV      3675            0.0000000000
     11138      3686  TIP3      H1            -26.7364703985       24.4255042534       -6.7878246635  SOLV      3675            0.0000000000
     11139      3686  TIP3      H2            -27.4176103985       23.9413042534       -8.0501646635  SOLV      3675            0.0000000000
     11140      3687  TIP3      OH2           -27.8427803985       24.6500942534      -18.7422546635  SOLV      3676            0.0000000000
     11141      3687  TIP3      H1            -27.2632303985       24.8001242534      -17.9953646635  SOLV      3676            0.0000000000
     11142      3687  TIP3      H2            -27.4287803985       25.1208342534      -19.4656146635  SOLV      3676            0.0000000000
     11143      3688  TIP3      OH2           -24.1439403985       16.4001342534      -18.9292846635  SOLV      3677            0.0000000000
     11144      3688  TIP3      H1            -25.0438703985       16.5390342534      -18.6342246635  SOLV      3677            0.0000000000
     11145      3688  TIP3      H2            -23.8921003985       17.2315942534      -19.3311146635  SOLV      3677            0.0000000000
     11146      3689  TIP3      OH2           -22.9548003985       30.7663742534      -20.5528946635  SOLV      3678            0.0000000000
     11147      3689  TIP3      H1            -22.8814503985       31.7053942534      -20.3823646635  SOLV      3678            0.0000000000
     11148      3689  TIP3      H2            -22.0492903985       30.4612342534      -20.6091646635  SOLV      3678            0.0000000000
     11149      3690  TIP3      OH2           -22.0369603985       30.9971242534       -5.5742246635  SOLV      3679            0.0000000000
     11150      3690  TIP3      H1            -22.0862803985       30.0419342534       -5.6114646635  SOLV      3679            0.0000000000
     11151      3690  TIP3      H2            -22.8637303985       31.2646542534       -5.1728446635  SOLV      3679            0.0000000000
     11152      3691  TIP3      OH2           -24.8849803985       22.4903742534       -5.0940046635  SOLV      3680            0.0000000000
     11153      3691  TIP3      H1            -25.2923003985       22.9709342534       -5.8146746635  SOLV      3680            0.0000000000
     11154      3691  TIP3      H2            -24.8444103985       21.5849742534       -5.4019246635  SOLV      3680            0.0000000000
     11155      3692  TIP3      OH2           -30.4544503985       17.0664042534       -7.7272146635  SOLV      3681            0.0000000000
     11156      3692  TIP3      H1            -30.0341403985       16.6511142534       -6.9741546635  SOLV      3681            0.0000000000
     11157      3692  TIP3      H2            -31.3874903985       16.8877342534       -7.6100146635  SOLV      3681            0.0000000000
     11158      3693  TIP3      OH2           -27.1279603985       20.8219242534       -6.8737646635  SOLV      3682            0.0000000000
     11159      3693  TIP3      H1            -27.6420103985       20.6961442534       -6.0761646635  SOLV      3682            0.0000000000
     11160      3693  TIP3      H2            -27.2834903985       21.7342342534       -7.1181446635  SOLV      3682            0.0000000000
     11161      3694  TIP3      OH2           -26.3654703985       25.6829242534      -21.1124646635  SOLV      3683            0.0000000000
     11162      3694  TIP3      H1            -26.3233903985       25.4603142534      -22.0424646635  SOLV      3683            0.0000000000
     11163      3694  TIP3      H2            -25.5162603985       26.0816342534      -20.9224746635  SOLV      3683            0.0000000000
     11164      3695  TIP3      OH2           -30.7927203985       19.5587442534      -20.4421346635  SOLV      3684            0.0000000000
     11165      3695  TIP3      H1            -31.0462403985       19.5779042534      -19.5193246635  SOLV      3684            0.0000000000
     11166      3695  TIP3      H2            -31.0495103985       18.6872842534      -20.7435146635  SOLV      3684            0.0000000000
     11167      3696  TIP3      OH2           -29.4937603985       22.9468542534      -16.2778146635  SOLV      3685            0.0000000000
     11168      3696  TIP3      H1            -29.9027303985       23.7617142534      -16.5693346635  SOLV      3685            0.0000000000
     11169      3696  TIP3      H2            -28.7731403985       22.8068642534      -16.8921046635  SOLV      3685            0.0000000000
     11170      3697  TIP3      OH2           -30.3916003985       23.1224942534       -4.7897446635  SOLV      3686            0.0000000000
     11171      3697  TIP3      H1            -30.9542203985       22.4176542534       -4.4689646635  SOLV      3686            0.0000000000
     11172      3697  TIP3      H2            -29.5652603985       23.0016842534       -4.3219846635  SOLV      3686            0.0000000000
     11173      3698  TIP3      OH2           -28.4889903985       22.3928942534      -13.4638446635  SOLV      3687            0.0000000000
     11174      3698  TIP3      H1            -28.6845403985       22.9985742534      -14.1787846635  SOLV      3687            0.0000000000
     11175      3698  TIP3      H2            -28.3077303985       21.5594142534      -13.8982146635  SOLV      3687            0.0000000000
     11176      3699  TIP3      OH2           -29.2250703985       24.0310242534       -8.7926046635  SOLV      3688            0.0000000000
     11177      3699  TIP3      H1            -28.9015903985       23.3999942534       -9.4355546635  SOLV      3688            0.0000000000
     11178      3699  TIP3      H2            -29.6651403985       23.4962442534       -8.1318646635  SOLV      3688            0.0000000000
     11179      3700  TIP3      OH2           -28.0425903985       19.1932042534      -10.7443046635  SOLV      3689            0.0000000000
     11180      3700  TIP3      H1            -28.7194303985       19.3245142534      -10.0803346635  SOLV      3689            0.0000000000
     11181      3700  TIP3      H2            -28.5281003985       19.0381542534      -11.5545346635  SOLV      3689            0.0000000000
     11182      3701  TIP3      OH2           -24.7550803985       34.8647442534       -4.4675446635  SOLV      3690            0.0000000000
     11183      3701  TIP3      H1            -24.5552103985       35.2889342534       -5.3020146635  SOLV      3690            0.0000000000
     11184      3701  TIP3      H2            -24.0997103985       35.2085642534       -3.8605046635  SOLV      3690            0.0000000000
     11185      3702  TIP3      OH2           -31.1278103985       22.7458742534      -12.1215246635  SOLV      3691            0.0000000000
     11186      3702  TIP3      H1            -30.5634703985       22.1995342534      -12.6685646635  SOLV      3691            0.0000000000
     11187      3702  TIP3      H2            -31.2754703985       22.2240642534      -11.3327646635  SOLV      3691            0.0000000000
     11188      3703  TIP3      OH2           -24.8070703985       26.4800742534       -9.2360846635  SOLV      3692            0.0000000000
     11189      3703  TIP3      H1            -24.1651903985       26.9367042534       -9.7798646635  SOLV      3692            0.0000000000
     11190      3703  TIP3      H2            -25.6373803985       26.5933142534       -9.6986746635  SOLV      3692            0.0000000000
     11191      3704  TIP3      OH2           -28.0592803985       20.1612442534      -19.8235846635  SOLV      3693            0.0000000000
     11192      3704  TIP3      H1            -28.9978603985       20.2728042534      -19.9747046635  SOLV      3693            0.0000000000
     11193      3704  TIP3      H2            -27.7620703985       21.0179342534      -19.5170146635  SOLV      3693            0.0000000000
     11194      3705  TIP3      OH2           -27.3409303985       22.0285142534      -18.1628446635  SOLV      3694            0.0000000000
     11195      3705  TIP3      H1            -26.4490303985       21.8910142534      -17.8437246635  SOLV      3694            0.0000000000
     11196      3705  TIP3      H2            -27.2845703985       22.8191242534      -18.6994946635  SOLV      3694            0.0000000000
     11197      3706  TIP3      OH2           -22.4560603985       22.2379242534      -18.4681746635  SOLV      3695            0.0000000000
     11198      3706  TIP3      H1            -23.0104303985       21.8417242534      -19.1404246635  SOLV      3695            0.0000000000
     11199      3706  TIP3      H2            -22.3557003985       23.1484442534      -18.7458446635  SOLV      3695            0.0000000000
     11200      3707  TIP3      OH2           -22.4928603985       28.0380942534       -5.6310246635  SOLV      3696            0.0000000000
     11201      3707  TIP3      H1            -23.3440103985       28.2764742534       -5.9983846635  SOLV      3696            0.0000000000
     11202      3707  TIP3      H2            -21.9025203985       28.0214142534       -6.3843146635  SOLV      3696            0.0000000000
     11203      3708  TIP3      OH2           -24.1608903985       31.0239642534      -18.0029646635  SOLV      3697            0.0000000000
     11204      3708  TIP3      H1            -24.5337803985       30.1983442534      -17.6939046635  SOLV      3697            0.0000000000
     11205      3708  TIP3      H2            -23.8835403985       30.8409042534      -18.9006246635  SOLV      3697            0.0000000000
     11206      3709  TIP3      OH2           -27.0005003985       25.8319142534      -10.9817746635  SOLV      3698            0.0000000000
     11207      3709  TIP3      H1            -27.9288103985       25.6001042534      -11.0088446635  SOLV      3698            0.0000000000
     11208      3709  TIP3      H2            -26.5493903985       25.0548942534      -11.3118946635  SOLV      3698            0.0000000000
     11209      3710  TIP3      OH2           -28.9712203985       28.0714942534       -9.2568046635  SOLV      3699            0.0000000000
     11210      3710  TIP3      H1            -29.3970903985       27.8436642534       -8.4304046635  SOLV      3699            0.0000000000
     11211      3710  TIP3      H2            -28.3906403985       27.3326742534       -9.4392746635  SOLV      3699            0.0000000000
     11212      3711  TIP3      OH2           -26.7683303985       29.0005442534      -20.1829046635  SOLV      3700            0.0000000000
     11213      3711  TIP3      H1            -26.4150203985       28.6205242534      -19.3785546635  SOLV      3700            0.0000000000
     11214      3711  TIP3      H2            -27.7169803985       28.9070242534      -20.0959746635  SOLV      3700            0.0000000000
     11215      3712  TIP3      OH2           -26.3128003985       32.6234442534       -6.7873246635  SOLV      3701            0.0000000000
     11216      3712  TIP3      H1            -26.9144803985       32.0677342534       -7.2826946635  SOLV      3701            0.0000000000
     11217      3712  TIP3      H2            -26.0314303985       33.2904242534       -7.4135846635  SOLV      3701            0.0000000000
     11218      3713  TIP3      OH2           -22.2648903985       33.4797942534      -19.9818846635  SOLV      3702            0.0000000000
     11219      3713  TIP3      H1            -21.5211003985       34.0658442534      -20.1217246635  SOLV      3702            0.0000000000
     11220      3713  TIP3      H2            -22.9590803985       34.0483742534      -19.6486446635  SOLV      3702            0.0000000000
     11221      3714  TIP3      OH2           -25.9024003985       27.6727442534      -17.9561146635  SOLV      3703            0.0000000000
     11222      3714  TIP3      H1            -26.1796403985       26.9446742534      -17.4000046635  SOLV      3703            0.0000000000
     11223      3714  TIP3      H2            -24.9751003985       27.7919442534      -17.7508546635  SOLV      3703            0.0000000000
     11224      3715  TIP3      OH2           -29.4558703985       19.5972442534       -8.4902046635  SOLV      3704            0.0000000000
     11225      3715  TIP3      H1            -28.7570803985       19.6711142534       -7.8402346635  SOLV      3704            0.0000000000
     11226      3715  TIP3      H2            -29.8367303985       18.7327442534       -8.3359146635  SOLV      3704            0.0000000000
     11227      3716  TIP3      OH2           -28.6713803985       19.2494142534      -17.3929746635  SOLV      3705            0.0000000000
     11228      3716  TIP3      H1            -28.4515503985       19.7209542534      -18.1964346635  SOLV      3705            0.0000000000
     11229      3716  TIP3      H2            -28.1129803985       19.6436742534      -16.7229146635  SOLV      3705            0.0000000000
     11230      3717  TIP3      OH2           -31.4713903985       20.9772942534      -16.5581346635  SOLV      3706            0.0000000000
     11231      3717  TIP3      H1            -30.6591303985       21.4816142534      -16.5119646635  SOLV      3706            0.0000000000
     11232      3717  TIP3      H2            -31.7160903985       20.8322642534      -15.6441746635  SOLV      3706            0.0000000000
     11233      3718  TIP3      OH2           -30.9357503985       21.9635642534       -7.3734746635  SOLV      3707            0.0000000000
     11234      3718  TIP3      H1            -30.8167203985       22.5371042534       -6.6164346635  SOLV      3707            0.0000000000
     11235      3718  TIP3      H2            -30.2802903985       21.2755042534       -7.2586946635  SOLV      3707            0.0000000000
     11236      3719  TIP3      OH2           -30.5877203985       18.0585942534      -15.6200246635  SOLV      3708            0.0000000000
     11237      3719  TIP3      H1            -30.9343703985       18.6756542534      -14.9755946635  SOLV      3708            0.0000000000
     11238      3719  TIP3      H2            -29.9290303985       18.5591642534      -16.1014746635  SOLV      3708            0.0000000000
     11239      3720  TIP3      OH2           -24.7311703985       19.8705942534       -6.5385046635  SOLV      3709            0.0000000000
     11240      3720  TIP3      H1            -25.6475903985       20.1327642534       -6.6261346635  SOLV      3709            0.0000000000
     11241      3720  TIP3      H2            -24.3956703985       19.8674942534       -7.4349746635  SOLV      3709            0.0000000000
     11242      3721  TIP3      OH2           -26.1290703985       23.6206942534      -12.4427746635  SOLV      3710            0.0000000000
     11243      3721  TIP3      H1            -26.9266303985       23.2057142534      -12.7712746635  SOLV      3710            0.0000000000
     11244      3721  TIP3      H2            -25.6839603985       22.9300642534      -11.9517246635  SOLV      3710            0.0000000000
     11245      3722  TIP3      OH2           -25.0426103985       32.8769442534      -10.8204246635  SOLV      3711            0.0000000000
     11246      3722  TIP3      H1            -25.1981803985       33.5553842534      -11.4774946635  SOLV      3711            0.0000000000
     11247      3722  TIP3      H2            -24.1099703985       32.9488742534      -10.6173646635  SOLV      3711            0.0000000000
     11248      3723  TIP3      OH2           -28.1544603985       30.8473442534       -4.2433346635  SOLV      3712            0.0000000000
     11249      3723  TIP3      H1            -28.5055103985       29.9906442534       -4.0002946635  SOLV      3712            0.0000000000
     11250      3723  TIP3      H2            -27.4281403985       30.9900142534       -3.6364346635  SOLV      3712            0.0000000000
     11251      3724  TIP3      OH2           -27.0315903985       27.2437442534       -6.8226046635  SOLV      3713            0.0000000000
     11252      3724  TIP3      H1            -26.2861103985       27.8321142534       -6.9422046635  SOLV      3713            0.0000000000
     11253      3724  TIP3      H2            -27.7889103985       27.8257142534       -6.7592946635  SOLV      3713            0.0000000000
     11254      3725  TIP3      OH2           -29.6222203985       26.0386342534       -3.5667746635  SOLV      3714            0.0000000000
     11255      3725  TIP3      H1            -28.6691003985       26.1225442534       -3.5941746635  SOLV      3714            0.0000000000
     11256      3725  TIP3      H2            -29.7827603985       25.3268142534       -2.9472846635  SOLV      3714            0.0000000000
     11257      3726  TIP3      OH2           -27.8926403985       22.5465642534       -3.0011546635  SOLV      3715            0.0000000000
     11258      3726  TIP3      H1            -27.7005103985       21.6155042534       -3.1127046635  SOLV      3715            0.0000000000
     11259      3726  TIP3      H2            -27.0350103985       22.9715142534       -3.0116146635  SOLV      3715            0.0000000000
     11260      3727  TIP3      OH2           -26.5759203985       25.3350842534       -4.9238846635  SOLV      3716            0.0000000000
     11261      3727  TIP3      H1            -26.8574203985       26.0445442534       -5.5015046635  SOLV      3716            0.0000000000
     11262      3727  TIP3      H2            -25.6334903985       25.2623842534       -5.0747646635  SOLV      3716            0.0000000000
     11263      3728  TIP3      OH2           -29.1048403985       20.1972242534       -5.1986546635  SOLV      3717            0.0000000000
     11264      3728  TIP3      H1            -30.0523003985       20.2291942534       -5.0663246635  SOLV      3717            0.0000000000
     11265      3728  TIP3      H2            -28.7921703985       19.5719342534       -4.5448346635  SOLV      3717            0.0000000000
     11266      3729  TIP3      OH2           -27.4706903985       18.8313342534       -3.1934646635  SOLV      3718            0.0000000000
     11267      3729  TIP3      H1            -27.5675103985       17.8790642534       -3.1992746635  SOLV      3718            0.0000000000
     11268      3729  TIP3      H2            -27.7923803985       19.1000142534       -2.3329146635  SOLV      3718            0.0000000000
     11269      3730  TIP3      OH2           -32.8627403985       16.0420742534       -5.1665646635  SOLV      3719            0.0000000000
     11270      3730  TIP3      H1            -32.1509003985       15.4022942534       -5.1806546635  SOLV      3719            0.0000000000
     11271      3730  TIP3      H2            -32.9637003985       16.3089042534       -6.0802546635  SOLV      3719            0.0000000000
     11272      3731  TIP3      OH2           -32.5089903985       17.7249142534       -3.1129346635  SOLV      3720            0.0000000000
     11273      3731  TIP3      H1            -32.6407703985       17.2492942534       -3.9330846635  SOLV      3720            0.0000000000
     11274      3731  TIP3      H2            -33.1082503985       18.4692742534       -3.1682246635  SOLV      3720            0.0000000000
     11275      3732  TIP3      OH2           -22.3268103985       33.5275142534      -10.5912346635  SOLV      3721            0.0000000000
     11276      3732  TIP3      H1            -22.3481403985       33.7123542534       -9.6522946635  SOLV      3721            0.0000000000
     11277      3732  TIP3      H2            -21.6361903985       34.0959142534      -10.9320946635  SOLV      3721            0.0000000000
     11278      3733  TIP3      OH2           -22.7635203985       33.0946242534       -7.6693246635  SOLV      3722            0.0000000000
     11279      3733  TIP3      H1            -23.2506503985       32.3590342534       -8.0405846635  SOLV      3722            0.0000000000
     11280      3733  TIP3      H2            -22.2142503985       32.7010142534       -6.9913846635  SOLV      3722            0.0000000000
     11281      3734  TIP3      OH2           -24.3127903985       28.8844342534       -3.0312946635  SOLV      3723            0.0000000000
     11282      3734  TIP3      H1            -25.1786803985       28.7794042534       -2.6370646635  SOLV      3723            0.0000000000
     11283      3734  TIP3      H2            -23.9362003985       29.6427642534       -2.5848246635  SOLV      3723            0.0000000000
     11284      3735  TIP3      OH2           -23.0118203985       27.1408042534      -17.5170446635  SOLV      3724            0.0000000000
     11285      3735  TIP3      H1            -22.1616803985       27.5618942534      -17.3898846635  SOLV      3724            0.0000000000
     11286      3735  TIP3      H2            -23.0063103985       26.4008142534      -16.9099046635  SOLV      3724            0.0000000000
     11287      3736  TIP3      OH2           -22.6172603985       25.1945442534      -15.6934746635  SOLV      3725            0.0000000000
     11288      3736  TIP3      H1            -23.3438003985       24.7148042534      -15.2957146635  SOLV      3725            0.0000000000
     11289      3736  TIP3      H2            -22.0359303985       25.4000142534      -14.9613146635  SOLV      3725            0.0000000000
     11290      3737  TIP3      OH2           -22.8581403985       27.9792942534      -10.7457146635  SOLV      3726            0.0000000000
     11291      3737  TIP3      H1            -22.0247203985       27.6012942534      -11.0263546635  SOLV      3726            0.0000000000
     11292      3737  TIP3      H2            -22.7461103985       28.9224142534      -10.8648046635  SOLV      3726            0.0000000000
     11293      3738  TIP3      OH2           -24.3719103985       30.8570442534       -8.4388746635  SOLV      3727            0.0000000000
     11294      3738  TIP3      H1            -25.0193803985       31.1821942534       -7.8133546635  SOLV      3727            0.0000000000
     11295      3738  TIP3      H2            -24.8895103985       30.4168142534       -9.1130446635  SOLV      3727            0.0000000000
     11296      3739  TIP3      OH2           -22.3489503985       25.0953942534      -19.3023446635  SOLV      3728            0.0000000000
     11297      3739  TIP3      H1            -22.8708403985       25.4518042534      -20.0212546635  SOLV      3728            0.0000000000
     11298      3739  TIP3      H2            -22.3820303985       25.7701742534      -18.6242546635  SOLV      3728            0.0000000000
     11299      3740  TIP3      OH2           -24.0000503985       22.3349542534      -20.7516346635  SOLV      3729            0.0000000000
     11300      3740  TIP3      H1            -23.9036103985       23.0016542534      -21.4316646635  SOLV      3729            0.0000000000
     11301      3740  TIP3      H2            -24.1400903985       21.5195842534      -21.2330846635  SOLV      3729            0.0000000000
     11302      3741  TIP3      OH2           -24.8305803985       23.7151942534      -15.1306046635  SOLV      3730            0.0000000000
     11303      3741  TIP3      H1            -24.9807003985       22.7700542534      -15.1508246635  SOLV      3730            0.0000000000
     11304      3741  TIP3      H2            -25.1841303985       23.9963342534      -14.2866946635  SOLV      3730            0.0000000000
     11305      3742  TIP3      OH2           -23.9742903985       25.6855242534       -5.4917746635  SOLV      3731            0.0000000000
     11306      3742  TIP3      H1            -23.3915603985       24.9507542534       -5.3000546635  SOLV      3731            0.0000000000
     11307      3742  TIP3      H2            -23.4103603985       26.4575542534       -5.4451946635  SOLV      3731            0.0000000000
     11308      3743  TIP3      OH2           -22.4775803985       23.5881042534       -4.8072346635  SOLV      3732            0.0000000000
     11309      3743  TIP3      H1            -23.3409103985       23.2093142534       -4.9727646635  SOLV      3732            0.0000000000
     11310      3743  TIP3      H2            -21.8732103985       22.8495842534       -4.8816546635  SOLV      3732            0.0000000000
     11311      3744  TIP3      OH2           -24.7526703985       19.7429342534      -21.6340846635  SOLV      3733            0.0000000000
     11312      3744  TIP3      H1            -24.1420903985       19.3716142534      -20.9972646635  SOLV      3733            0.0000000000
     11313      3744  TIP3      H2            -25.5895203985       19.3216242534      -21.4380846635  SOLV      3733            0.0000000000
     11314      3745  TIP3      OH2           -25.1201003985       21.2977742534      -16.6680946635  SOLV      3734            0.0000000000
     11315      3745  TIP3      H1            -24.8403903985       20.3908142534      -16.5439246635  SOLV      3734            0.0000000000
     11316      3745  TIP3      H2            -24.3609303985       21.7319242534      -17.0571746635  SOLV      3734            0.0000000000
     11317      3746  TIP3      OH2           -24.5082703985       21.8795142534      -11.2322046635  SOLV      3735            0.0000000000
     11318      3746  TIP3      H1            -23.5754703985       22.0915042534      -11.2666046635  SOLV      3735            0.0000000000
     11319      3746  TIP3      H2            -24.7435203985       21.9807242534      -10.3099046635  SOLV      3735            0.0000000000
     11320      3747  TIP3      OH2           -24.4790803985       22.6160442534       -8.4562646635  SOLV      3736            0.0000000000
     11321      3747  TIP3      H1            -25.3219503985       22.8840842534       -8.0902846635  SOLV      3736            0.0000000000
     11322      3747  TIP3      H2            -24.0366503985       23.4382342534       -8.6671546635  SOLV      3736            0.0000000000
     11323      3748  TIP3      OH2           -22.1959203985       16.5960642534       -3.1027646635  SOLV      3737            0.0000000000
     11324      3748  TIP3      H1            -21.8462203985       15.9424142534       -3.7082946635  SOLV      3737            0.0000000000
     11325      3748  TIP3      H2            -22.0489703985       17.4334742534       -3.5425046635  SOLV      3737            0.0000000000
     11326      3749  TIP3      OH2           -24.5066203985       18.5607042534      -16.6198946635  SOLV      3738            0.0000000000
     11327      3749  TIP3      H1            -24.3241203985       18.1118542534      -15.7943946635  SOLV      3738            0.0000000000
     11328      3749  TIP3      H2            -25.1063303985       17.9761442534      -17.0834346635  SOLV      3738            0.0000000000
     11329      3750  TIP3      OH2           -22.6762003985       18.7055242534       -4.7536346635  SOLV      3739            0.0000000000
     11330      3750  TIP3      H1            -23.5936303985       18.9762342534       -4.7892846635  SOLV      3739            0.0000000000
     11331      3750  TIP3      H2            -22.5532603985       18.1703642534       -5.5376646635  SOLV      3739            0.0000000000
     11332      3751  TIP3      OH2           -22.6400003985       18.6285142534      -20.0918646635  SOLV      3740            0.0000000000
     11333      3751  TIP3      H1            -22.2277403985       17.9070842534      -20.5670646635  SOLV      3740            0.0000000000
     11334      3751  TIP3      H2            -21.9583503985       19.2979742534      -20.0334346635  SOLV      3740            0.0000000000
     11335      3752  TIP3      OH2           -25.5882103985       33.6174542534      -15.0190546635  SOLV      3741            0.0000000000
     11336      3752  TIP3      H1            -24.9359203985       33.2696642534      -15.6271446635  SOLV      3741            0.0000000000
     11337      3752  TIP3      H2            -25.0778303985       34.1057742534      -14.3730846635  SOLV      3741            0.0000000000
     11338      3753  TIP3      OH2           -23.6756103985       16.7951542534       -6.9345546635  SOLV      3742            0.0000000000
     11339      3753  TIP3      H1            -24.4882603985       17.1201842534       -7.3220846635  SOLV      3742            0.0000000000
     11340      3753  TIP3      H2            -23.4427603985       16.0350042534       -7.4676446635  SOLV      3742            0.0000000000
     11341      3754  TIP3      OH2           -25.7378603985       34.7132542534       -8.7249046635  SOLV      3743            0.0000000000
     11342      3754  TIP3      H1            -25.9196603985       35.6291442534       -8.9354146635  SOLV      3743            0.0000000000
     11343      3754  TIP3      H2            -25.5610803985       34.3029642534       -9.5714446635  SOLV      3743            0.0000000000
     11344      3755  TIP3      OH2           -30.2457603985       18.2442142534      -12.6117346635  SOLV      3744            0.0000000000
     11345      3755  TIP3      H1            -30.9200803985       17.6147742534      -12.3561546635  SOLV      3744            0.0000000000
     11346      3755  TIP3      H2            -29.6818403985       17.7601042534      -13.2149446635  SOLV      3744            0.0000000000
     11347      3756  TIP3      OH2           -25.1030403985       16.3516142534      -12.4990246635  SOLV      3745            0.0000000000
     11348      3756  TIP3      H1            -24.4992803985       16.8991542534      -13.0009246635  SOLV      3745            0.0000000000
     11349      3756  TIP3      H2            -25.9728403985       16.6706542534      -12.7396146635  SOLV      3745            0.0000000000
     11350      3757  TIP3      OH2           -23.3760003985       17.4904842534      -14.1659346635  SOLV      3746            0.0000000000
     11351      3757  TIP3      H1            -22.7642503985       16.9760542534      -14.6925746635  SOLV      3746            0.0000000000
     11352      3757  TIP3      H2            -22.9936603985       18.3676942534      -14.1424946635  SOLV      3746            0.0000000000
     11353      3758  TIP3      OH2           -33.3397503985       16.8049542534      -14.9764346635  SOLV      3747            0.0000000000
     11354      3758  TIP3      H1            -32.4654103985       17.1933842534      -15.0060046635  SOLV      3747            0.0000000000
     11355      3758  TIP3      H2            -33.4756703985       16.5897342534      -14.0537146635  SOLV      3747            0.0000000000
     11356      3759  TIP3      OH2           -27.7829103985       16.8349342534      -13.3272646635  SOLV      3748            0.0000000000
     11357      3759  TIP3      H1            -27.7067503985       16.9300942534      -14.2766646635  SOLV      3748            0.0000000000
     11358      3759  TIP3      H2            -28.0579903985       15.9272242534      -13.1983546635  SOLV      3748            0.0000000000
     11359      3760  TIP3      OH2           -26.4296503985       16.8607142534      -17.6347646635  SOLV      3749            0.0000000000
     11360      3760  TIP3      H1            -27.1325403985       17.4756342534      -17.8446246635  SOLV      3749            0.0000000000
     11361      3760  TIP3      H2            -26.8745103985       16.0233842534      -17.5036746635  SOLV      3749            0.0000000000
     11362      3761  TIP3      OH2           -32.1957503985       18.8853542534      -18.0866746635  SOLV      3750            0.0000000000
     11363      3761  TIP3      H1            -32.0176203985       18.2386742534      -17.4038146635  SOLV      3750            0.0000000000
     11364      3761  TIP3      H2            -32.2491303985       19.7191242534      -17.6195646635  SOLV      3750            0.0000000000
     11365      3762  TIP3      OH2           -23.6084103985       33.3967942534      -17.0118946635  SOLV      3751            0.0000000000
     11366      3762  TIP3      H1            -23.8027003985       32.6490042534      -17.5769346635  SOLV      3751            0.0000000000
     11367      3762  TIP3      H2            -23.6474003985       34.1548042534      -17.5951046635  SOLV      3751            0.0000000000
     11368      3763  TIP3      OH2           -27.5669003985       16.0754042534       -3.5541346635  SOLV      3752            0.0000000000
     11369      3763  TIP3      H1            -27.4901803985       15.6494742534       -2.7003646635  SOLV      3752            0.0000000000
     11370      3763  TIP3      H2            -26.6732403985       16.0888742534       -3.8967846635  SOLV      3752            0.0000000000
     11371      3764  TIP3      OH2           -24.3907903985       32.1480342534       -4.8617146635  SOLV      3753            0.0000000000
     11372      3764  TIP3      H1            -25.1726003985       31.9618342534       -5.3816546635  SOLV      3753            0.0000000000
     11373      3764  TIP3      H2            -24.4628003985       33.0774642534       -4.6444646635  SOLV      3753            0.0000000000
     11374      3765  TIP3      OH2            -9.9847503985       26.0344742534      -14.8309946635  SOLV      3754            0.0000000000
     11375      3765  TIP3      H1             -9.8956403985       26.9782942534      -14.9632846635  SOLV      3754            0.0000000000
     11376      3765  TIP3      H2            -10.6229903985       25.7591142534      -15.4890546635  SOLV      3754            0.0000000000
     11377      3766  TIP3      OH2           -11.0516203985       25.2895442534      -11.4121746635  SOLV      3755            0.0000000000
     11378      3766  TIP3      H1            -11.0898703985       24.6431742534      -10.7072146635  SOLV      3755            0.0000000000
     11379      3766  TIP3      H2            -11.3739703985       24.8229842534      -12.1833046635  SOLV      3755            0.0000000000
     11380      3767  TIP3      OH2           -18.6831203985       24.9037542534       -9.8191846635  SOLV      3756            0.0000000000
     11381      3767  TIP3      H1            -18.6419103985       24.2780842534       -9.0959446635  SOLV      3756            0.0000000000
     11382      3767  TIP3      H2            -17.9803503985       25.5276142534       -9.6371446635  SOLV      3756            0.0000000000
     11383      3768  TIP3      OH2            -7.3456003985       28.2285842534      -13.1106646635  SOLV      3757            0.0000000000
     11384      3768  TIP3      H1             -7.7863303985       27.5081842534      -12.6601046635  SOLV      3757            0.0000000000
     11385      3768  TIP3      H2             -7.3586303985       28.9493042534      -12.4808946635  SOLV      3757            0.0000000000
     11386      3769  TIP3      OH2           -17.7598103985       29.3536442534      -11.2842746635  SOLV      3758            0.0000000000
     11387      3769  TIP3      H1            -18.1292903985       28.5516942534      -11.6538446635  SOLV      3758            0.0000000000
     11388      3769  TIP3      H2            -16.8187003985       29.1851342534      -11.2379346635  SOLV      3758            0.0000000000
     11389      3770  TIP3      OH2           -21.1497603985       23.0139042534      -15.8913946635  SOLV      3759            0.0000000000
     11390      3770  TIP3      H1            -21.5974203985       23.8597742534      -15.9097446635  SOLV      3759            0.0000000000
     11391      3770  TIP3      H2            -21.7106403985       22.4343242534      -16.4068846635  SOLV      3759            0.0000000000
     11392      3771  TIP3      OH2           -20.4391503985       25.1758642534      -13.7655946635  SOLV      3760            0.0000000000
     11393      3771  TIP3      H1            -20.2258003985       24.4060242534      -13.2382946635  SOLV      3760            0.0000000000
     11394      3771  TIP3      H2            -19.7013903985       25.2655342534      -14.3688346635  SOLV      3760            0.0000000000
     11395      3772  TIP3      OH2           -10.2340503985       33.3327542534      -12.8986246635  SOLV      3761            0.0000000000
     11396      3772  TIP3      H1             -9.6144103985       32.6562242534      -13.1717046635  SOLV      3761            0.0000000000
     11397      3772  TIP3      H2            -10.4423103985       33.1148342534      -11.9901346635  SOLV      3761            0.0000000000
     11398      3773  TIP3      OH2           -12.6621803985       27.7216842534      -11.0060746635  SOLV      3762            0.0000000000
     11399      3773  TIP3      H1            -12.3583903985       27.0358242534      -11.6006646635  SOLV      3762            0.0000000000
     11400      3773  TIP3      H2            -11.9407803985       27.8405542534      -10.3882746635  SOLV      3762            0.0000000000
     11401      3774  TIP3      OH2            -3.9992003985       19.3232142534      -10.1454546635  SOLV      3763            0.0000000000
     11402      3774  TIP3      H1             -3.9499803985       19.9333342534       -9.4095446635  SOLV      3763            0.0000000000
     11403      3774  TIP3      H2             -3.5736903985       19.7843042534      -10.8683446635  SOLV      3763            0.0000000000
     11404      3775  TIP3      OH2            -9.5214803985       22.1159242534      -10.6785946635  SOLV      3764            0.0000000000
     11405      3775  TIP3      H1             -9.3788903985       21.1696242534      -10.6584346635  SOLV      3764            0.0000000000
     11406      3775  TIP3      H2             -9.6275803985       22.3229042534      -11.6071046635  SOLV      3764            0.0000000000
     11407      3776  TIP3      OH2           -16.3666503985       20.2175642534      -13.4061146635  SOLV      3765            0.0000000000
     11408      3776  TIP3      H1            -16.3235403985       21.0774142534      -13.8244846635  SOLV      3765            0.0000000000
     11409      3776  TIP3      H2            -16.8242403985       19.6650342534      -14.0397946635  SOLV      3765            0.0000000000
     11410      3777  TIP3      OH2            -8.6443803985       20.3481242534      -15.0052846635  SOLV      3766            0.0000000000
     11411      3777  TIP3      H1             -7.9979503985       20.0194442534      -14.3805246635  SOLV      3766            0.0000000000
     11412      3777  TIP3      H2             -8.1344403985       20.8660242534      -15.6281446635  SOLV      3766            0.0000000000
     11413      3778  TIP3      OH2           -19.7465003985       22.6141442534      -12.6439746635  SOLV      3767            0.0000000000
     11414      3778  TIP3      H1            -19.0928403985       22.0643142534      -12.2119646635  SOLV      3767            0.0000000000
     11415      3778  TIP3      H2            -19.7225703985       22.3400442534      -13.5607746635  SOLV      3767            0.0000000000
     11416      3779  TIP3      OH2           -14.5900503985       24.1642742534      -13.4288246635  SOLV      3768            0.0000000000
     11417      3779  TIP3      H1            -13.9739503985       23.6378142534      -12.9194246635  SOLV      3768            0.0000000000
     11418      3779  TIP3      H2            -15.1761703985       23.5241442534      -13.8324646635  SOLV      3768            0.0000000000
     11419      3780  TIP3      OH2            -3.6077403985       20.8011342534       -7.9094746635  SOLV      3769            0.0000000000
     11420      3780  TIP3      H1             -4.2962803985       21.4592042534       -8.0048146635  SOLV      3769            0.0000000000
     11421      3780  TIP3      H2             -3.5922803985       20.6039242534       -6.9729346635  SOLV      3769            0.0000000000
     11422      3781  TIP3      OH2           -17.5564603985       19.1354042534       -9.3320346635  SOLV      3770            0.0000000000
     11423      3781  TIP3      H1            -17.7752903985       19.6654642534      -10.0984346635  SOLV      3770            0.0000000000
     11424      3781  TIP3      H2            -18.2243703985       19.3619542534       -8.6848946635  SOLV      3770            0.0000000000
     11425      3782  TIP3      OH2           -10.1874803985       28.6355142534      -15.7881246635  SOLV      3771            0.0000000000
     11426      3782  TIP3      H1            -10.4829703985       28.3127442534      -16.6394346635  SOLV      3771            0.0000000000
     11427      3782  TIP3      H2            -10.5117003985       29.5351842534      -15.7468646635  SOLV      3771            0.0000000000
     11428      3783  TIP3      OH2           -14.9873203985       26.8109742534       -9.0446646635  SOLV      3772            0.0000000000
     11429      3783  TIP3      H1            -15.7274103985       27.4091242534       -8.9411446635  SOLV      3772            0.0000000000
     11430      3783  TIP3      H2            -14.2733703985       27.3649342534       -9.3603046635  SOLV      3772            0.0000000000
     11431      3784  TIP3      OH2            -6.8805403985       19.6390542534      -13.0246946635  SOLV      3773            0.0000000000
     11432      3784  TIP3      H1             -7.0957403985       18.8733942534      -12.4920946635  SOLV      3773            0.0000000000
     11433      3784  TIP3      H2             -6.2248003985       20.1115142534      -12.5118446635  SOLV      3773            0.0000000000
     11434      3785  TIP3      OH2           -17.9627303985       21.0275842534      -11.3798146635  SOLV      3774            0.0000000000
     11435      3785  TIP3      H1            -17.3491003985       21.6603442534      -11.0065746635  SOLV      3774            0.0000000000
     11436      3785  TIP3      H2            -17.4506603985       20.5550842534      -12.0361246635  SOLV      3774            0.0000000000
     11437      3786  TIP3      OH2           -16.5798903985       28.7752742534       -8.2575146635  SOLV      3775            0.0000000000
     11438      3786  TIP3      H1            -16.5851303985       29.6546242534       -8.6355846635  SOLV      3775            0.0000000000
     11439      3786  TIP3      H2            -17.4334803985       28.6916842534       -7.8325246635  SOLV      3775            0.0000000000
     11440      3787  TIP3      OH2           -20.4588003985       28.4460642534      -17.4755846635  SOLV      3776            0.0000000000
     11441      3787  TIP3      H1            -20.7307103985       28.6751642534      -18.3642946635  SOLV      3776            0.0000000000
     11442      3787  TIP3      H2            -20.4132303985       29.2839442534      -17.0150546635  SOLV      3776            0.0000000000
     11443      3788  TIP3      OH2            -6.8338303985       30.0676542534      -10.7627346635  SOLV      3777            0.0000000000
     11444      3788  TIP3      H1             -7.7754603985       30.1260442534      -10.6010446635  SOLV      3777            0.0000000000
     11445      3788  TIP3      H2             -6.5572203985       30.9737042534      -10.8997646635  SOLV      3777            0.0000000000
     11446      3789  TIP3      OH2            -6.5331303985       18.3541842534       -9.3453446635  SOLV      3778            0.0000000000
     11447      3789  TIP3      H1             -7.2692103985       18.9648942534       -9.3832146635  SOLV      3778            0.0000000000
     11448      3789  TIP3      H2             -5.8497303985       18.7690842534       -9.8717046635  SOLV      3778            0.0000000000
     11449      3790  TIP3      OH2           -13.5299903985       16.4409142534      -11.8795446635  SOLV      3779            0.0000000000
     11450      3790  TIP3      H1            -13.6475703985       15.4925142534      -11.9337146635  SOLV      3779            0.0000000000
     11451      3790  TIP3      H2            -14.3849803985       16.7735242534      -11.6064346635  SOLV      3779            0.0000000000
     11452      3791  TIP3      OH2            -8.5817103985       31.8490042534      -14.1375746635  SOLV      3780            0.0000000000
     11453      3791  TIP3      H1             -8.1564803985       31.1417942534      -14.6226146635  SOLV      3780            0.0000000000
     11454      3791  TIP3      H2             -8.2647103985       32.6502742534      -14.5543546635  SOLV      3780            0.0000000000
     11455      3792  TIP3      OH2            -7.4220603985       29.7498542534      -15.6289146635  SOLV      3781            0.0000000000
     11456      3792  TIP3      H1             -7.6795803985       29.0598642534      -16.2403246635  SOLV      3781            0.0000000000
     11457      3792  TIP3      H2             -7.3509803985       29.3069742534      -14.7833246635  SOLV      3781            0.0000000000
     11458      3793  TIP3      OH2            -5.7360403985       28.3165242534       -7.1515646635  SOLV      3782            0.0000000000
     11459      3793  TIP3      H1             -5.5964103985       27.7247742534       -7.8908646635  SOLV      3782            0.0000000000
     11460      3793  TIP3      H2             -5.5687603985       29.1891142534       -7.5076846635  SOLV      3782            0.0000000000
     11461      3794  TIP3      OH2           -11.2635003985       25.2784742534      -17.3789646635  SOLV      3783            0.0000000000
     11462      3794  TIP3      H1            -11.9749503985       25.8134442534      -17.7309146635  SOLV      3783            0.0000000000
     11463      3794  TIP3      H2            -10.5725403985       25.3336842534      -18.0390746635  SOLV      3783            0.0000000000
     11464      3795  TIP3      OH2           -11.2095803985       23.7359042534      -20.3404646635  SOLV      3784            0.0000000000
     11465      3795  TIP3      H1            -10.5085903985       23.7585942534      -19.6890646635  SOLV      3784            0.0000000000
     11466      3795  TIP3      H2            -10.9072903985       23.1078742534      -20.9965346635  SOLV      3784            0.0000000000
     11467      3796  TIP3      OH2            -3.8941103985       24.6563242534       -9.0855246635  SOLV      3785            0.0000000000
     11468      3796  TIP3      H1             -4.5467003985       25.3508842534       -8.9964346635  SOLV      3785            0.0000000000
     11469      3796  TIP3      H2             -3.4290803985       24.8664142534       -9.8953646635  SOLV      3785            0.0000000000
     11470      3797  TIP3      OH2            -7.8577303985       25.4878042534      -16.4273746635  SOLV      3786            0.0000000000
     11471      3797  TIP3      H1             -8.5896303985       25.7161742534      -15.8543146635  SOLV      3786            0.0000000000
     11472      3797  TIP3      H2             -7.4105103985       24.7740742534      -15.9726246635  SOLV      3786            0.0000000000
     11473      3798  TIP3      OH2            -7.9603803985       23.6620642534       -7.3596746635  SOLV      3787            0.0000000000
     11474      3798  TIP3      H1             -7.8804703985       24.4255042534       -6.7878246635  SOLV      3787            0.0000000000
     11475      3798  TIP3      H2             -8.5616103985       23.9413042534       -8.0501646635  SOLV      3787            0.0000000000
     11476      3799  TIP3      OH2           -16.2123603985       26.1184242534      -14.5448746635  SOLV      3788            0.0000000000
     11477      3799  TIP3      H1            -16.5428403985       25.7477642534      -15.3631746635  SOLV      3788            0.0000000000
     11478      3799  TIP3      H2            -15.6239503985       25.4478242534      -14.1980446635  SOLV      3788            0.0000000000
     11479      3800  TIP3      OH2           -14.8456103985       29.5464842534      -11.8636546635  SOLV      3789            0.0000000000
     11480      3800  TIP3      H1            -14.9404803985       28.9677942534      -12.6201946635  SOLV      3789            0.0000000000
     11481      3800  TIP3      H2            -14.1162503985       29.1750542534      -11.3673746635  SOLV      3789            0.0000000000
     11482      3801  TIP3      OH2           -15.8458103985       24.8869842534      -10.9113746635  SOLV      3790            0.0000000000
     11483      3801  TIP3      H1            -15.2805603985       25.0084042534      -11.6742546635  SOLV      3790            0.0000000000
     11484      3801  TIP3      H2            -15.5269203985       25.5244842534      -10.2725246635  SOLV      3790            0.0000000000
     11485      3802  TIP3      OH2            -9.5365903985       30.3901742534      -10.1773246635  SOLV      3791            0.0000000000
     11486      3802  TIP3      H1             -9.7769303985       31.0524842534       -9.5294046635  SOLV      3791            0.0000000000
     11487      3802  TIP3      H2             -9.7347703985       29.5556942534       -9.7523646635  SOLV      3791            0.0000000000
     11488      3803  TIP3      OH2           -14.9657403985       29.2862542534       -6.1941846635  SOLV      3792            0.0000000000
     11489      3803  TIP3      H1            -15.2769903985       30.0685742534       -5.7388646635  SOLV      3792            0.0000000000
     11490      3803  TIP3      H2            -15.6157203985       29.1331642534       -6.8799846635  SOLV      3792            0.0000000000
     11491      3804  TIP3      OH2            -8.9867803985       24.6500942534      -18.7422546635  SOLV      3793            0.0000000000
     11492      3804  TIP3      H1             -8.4072303985       24.8001242534      -17.9953646635  SOLV      3793            0.0000000000
     11493      3804  TIP3      H2             -8.5727803985       25.1208342534      -19.4656146635  SOLV      3793            0.0000000000
     11494      3805  TIP3      OH2           -18.0457503985       25.4843642534       -6.9656146635  SOLV      3794            0.0000000000
     11495      3805  TIP3      H1            -17.9754303985       26.1350442534       -6.2671146635  SOLV      3794            0.0000000000
     11496      3805  TIP3      H2            -18.9365303985       25.5871142534       -7.3005246635  SOLV      3794            0.0000000000
     11497      3806  TIP3      OH2           -11.2602903985       31.3869442534      -15.3069446635  SOLV      3795            0.0000000000
     11498      3806  TIP3      H1            -10.7865303985       31.6825742534      -14.5295246635  SOLV      3795            0.0000000000
     11499      3806  TIP3      H2            -11.8233603985       32.1251042534      -15.5399846635  SOLV      3795            0.0000000000
     11500      3807  TIP3      OH2           -16.7261503985       31.3577542534       -5.4308046635  SOLV      3796            0.0000000000
     11501      3807  TIP3      H1            -16.7186203985       31.2217242534       -6.3782546635  SOLV      3796            0.0000000000
     11502      3807  TIP3      H2            -17.6421103985       31.2405642534       -5.1788046635  SOLV      3796            0.0000000000
     11503      3808  TIP3      OH2            -5.2879403985       16.4001342534      -18.9292846635  SOLV      3797            0.0000000000
     11504      3808  TIP3      H1             -6.1878703985       16.5390342534      -18.6342246635  SOLV      3797            0.0000000000
     11505      3808  TIP3      H2             -5.0361003985       17.2315942534      -19.3311146635  SOLV      3797            0.0000000000
     11506      3809  TIP3      OH2           -17.2220903985       25.1878542534      -16.9555946635  SOLV      3798            0.0000000000
     11507      3809  TIP3      H1            -17.5139603985       25.9560242534      -17.4464646635  SOLV      3798            0.0000000000
     11508      3809  TIP3      H2            -17.8965703985       24.5284742534      -17.1184546635  SOLV      3798            0.0000000000
     11509      3810  TIP3      OH2            -4.0988003985       30.7663742534      -20.5528946635  SOLV      3799            0.0000000000
     11510      3810  TIP3      H1             -4.0254503985       31.7053942534      -20.3823646635  SOLV      3799            0.0000000000
     11511      3810  TIP3      H2             -3.1932903985       30.4612342534      -20.6091646635  SOLV      3799            0.0000000000
     11512      3811  TIP3      OH2           -21.1290803985       27.5507742534       -8.1406146635  SOLV      3800            0.0000000000
     11513      3811  TIP3      H1            -21.6302403985       27.5227142534       -8.9556446635  SOLV      3800            0.0000000000
     11514      3811  TIP3      H2            -21.1237103985       26.6450942534       -7.8308846635  SOLV      3800            0.0000000000
     11515      3812  TIP3      OH2           -21.3788103985       30.3311542534      -11.2565946635  SOLV      3801            0.0000000000
     11516      3812  TIP3      H1            -20.4327503985       30.1868542534      -11.2756446635  SOLV      3801            0.0000000000
     11517      3812  TIP3      H2            -21.4911803985       31.1154342534      -10.7194746635  SOLV      3801            0.0000000000
     11518      3813  TIP3      OH2            -3.1809603985       30.9971242534       -5.5742246635  SOLV      3802            0.0000000000
     11519      3813  TIP3      H1             -3.2302803985       30.0419342534       -5.6114646635  SOLV      3802            0.0000000000
     11520      3813  TIP3      H2             -4.0077303985       31.2646542534       -5.1728446635  SOLV      3802            0.0000000000
     11521      3814  TIP3      OH2           -12.2025603985       30.5710442534       -6.6980846635  SOLV      3803            0.0000000000
     11522      3814  TIP3      H1            -12.1151003985       31.3975042534       -6.2231746635  SOLV      3803            0.0000000000
     11523      3814  TIP3      H2            -13.0660503985       30.2414242534       -6.4491546635  SOLV      3803            0.0000000000
     11524      3815  TIP3      OH2           -11.7879803985       34.3434142534      -16.8920246635  SOLV      3804            0.0000000000
     11525      3815  TIP3      H1            -11.8633803985       34.2221342534      -17.8385046635  SOLV      3804            0.0000000000
     11526      3815  TIP3      H2            -11.7551103985       35.2926842534      -16.7735646635  SOLV      3804            0.0000000000
     11527      3816  TIP3      OH2           -18.1346003985       33.1321142534      -15.1111246635  SOLV      3805            0.0000000000
     11528      3816  TIP3      H1            -17.9825603985       32.7841542534      -14.2324746635  SOLV      3805            0.0000000000
     11529      3816  TIP3      H2            -18.9855603985       32.7758442534      -15.3664046635  SOLV      3805            0.0000000000
     11530      3817  TIP3      OH2            -8.6863803985       33.4974342534      -19.8897846635  SOLV      3806            0.0000000000
     11531      3817  TIP3      H1             -8.3115403985       32.7530442534      -20.3605246635  SOLV      3806            0.0000000000
     11532      3817  TIP3      H2             -8.6820103985       33.2274942534      -18.9714546635  SOLV      3806            0.0000000000
     11533      3818  TIP3      OH2            -9.0175703985       33.4231442534      -17.1405646635  SOLV      3807            0.0000000000
     11534      3818  TIP3      H1             -9.9525903985       33.5233342534      -16.9618646635  SOLV      3807            0.0000000000
     11535      3818  TIP3      H2             -8.7373803985       32.7137442534      -16.5622446635  SOLV      3807            0.0000000000
     11536      3819  TIP3      OH2            -6.0289803985       22.4903742534       -5.0940046635  SOLV      3808            0.0000000000
     11537      3819  TIP3      H1             -6.4363003985       22.9709342534       -5.8146746635  SOLV      3808            0.0000000000
     11538      3819  TIP3      H2             -5.9884103985       21.5849742534       -5.4019246635  SOLV      3808            0.0000000000
     11539      3820  TIP3      OH2           -18.8800303985       28.8743142534       -7.0973346635  SOLV      3809            0.0000000000
     11540      3820  TIP3      H1            -18.6639003985       28.5128742534       -6.2377546635  SOLV      3809            0.0000000000
     11541      3820  TIP3      H2            -19.7355603985       28.4996942534       -7.3069846635  SOLV      3809            0.0000000000
     11542      3821  TIP3      OH2           -16.2612303985       17.3443642534      -11.1019146635  SOLV      3810            0.0000000000
     11543      3821  TIP3      H1            -17.1228603985       17.2571842534      -11.5096246635  SOLV      3810            0.0000000000
     11544      3821  TIP3      H2            -16.2836603985       18.2003742534      -10.6741546635  SOLV      3810            0.0000000000
     11545      3822  TIP3      OH2           -11.5984503985       17.0664042534       -7.7272146635  SOLV      3811            0.0000000000
     11546      3822  TIP3      H1            -11.1781403985       16.6511142534       -6.9741546635  SOLV      3811            0.0000000000
     11547      3822  TIP3      H2            -12.5314903985       16.8877342534       -7.6100146635  SOLV      3811            0.0000000000
     11548      3823  TIP3      OH2            -8.2719603985       20.8219242534       -6.8737646635  SOLV      3812            0.0000000000
     11549      3823  TIP3      H1             -8.7860103985       20.6961442534       -6.0761646635  SOLV      3812            0.0000000000
     11550      3823  TIP3      H2             -8.4274903985       21.7342342534       -7.1181446635  SOLV      3812            0.0000000000
     11551      3824  TIP3      OH2            -7.5094703985       25.6829242534      -21.1124646635  SOLV      3813            0.0000000000
     11552      3824  TIP3      H1             -7.4673903985       25.4603142534      -22.0424646635  SOLV      3813            0.0000000000
     11553      3824  TIP3      H2             -6.6602603985       26.0816342534      -20.9224746635  SOLV      3813            0.0000000000
     11554      3825  TIP3      OH2           -11.9367203985       19.5587442534      -20.4421346635  SOLV      3814            0.0000000000
     11555      3825  TIP3      H1            -12.1902403985       19.5779042534      -19.5193246635  SOLV      3814            0.0000000000
     11556      3825  TIP3      H2            -12.1935103985       18.6872842534      -20.7435146635  SOLV      3814            0.0000000000
     11557      3826  TIP3      OH2           -16.1702203985       22.3098142534      -10.0068946635  SOLV      3815            0.0000000000
     11558      3826  TIP3      H1            -16.8120103985       22.2695442534       -9.2978846635  SOLV      3815            0.0000000000
     11559      3826  TIP3      H2            -16.1330203985       23.2362842534      -10.2445946635  SOLV      3815            0.0000000000
     11560      3827  TIP3      OH2           -10.6377603985       22.9468542534      -16.2778146635  SOLV      3816            0.0000000000
     11561      3827  TIP3      H1            -11.0467303985       23.7617142534      -16.5693346635  SOLV      3816            0.0000000000
     11562      3827  TIP3      H2             -9.9171403985       22.8068642534      -16.8921046635  SOLV      3816            0.0000000000
     11563      3828  TIP3      OH2           -11.5356003985       23.1224942534       -4.7897446635  SOLV      3817            0.0000000000
     11564      3828  TIP3      H1            -12.0982203985       22.4176542534       -4.4689646635  SOLV      3817            0.0000000000
     11565      3828  TIP3      H2            -10.7092603985       23.0016842534       -4.3219846635  SOLV      3817            0.0000000000
     11566      3829  TIP3      OH2            -9.6329903985       22.3928942534      -13.4638446635  SOLV      3818            0.0000000000
     11567      3829  TIP3      H1             -9.8285403985       22.9985742534      -14.1787846635  SOLV      3818            0.0000000000
     11568      3829  TIP3      H2             -9.4517303985       21.5594142534      -13.8982146635  SOLV      3818            0.0000000000
     11569      3830  TIP3      OH2           -18.4201703985       22.6301642534       -8.1396946635  SOLV      3819            0.0000000000
     11570      3830  TIP3      H1            -18.4582303985       23.0303242534       -7.2709846635  SOLV      3819            0.0000000000
     11571      3830  TIP3      H2            -18.9110603985       21.8134042534       -8.0494046635  SOLV      3819            0.0000000000
     11572      3831  TIP3      OH2           -15.0544303985       20.0043942534      -21.3410946635  SOLV      3820            0.0000000000
     11573      3831  TIP3      H1            -15.4853603985       19.5594042534      -20.6113546635  SOLV      3820            0.0000000000
     11574      3831  TIP3      H2            -15.7725603985       20.3760242534      -21.8533446635  SOLV      3820            0.0000000000
     11575      3832  TIP3      OH2           -21.8120903985       19.7463442534      -14.2892246635  SOLV      3821            0.0000000000
     11576      3832  TIP3      H1            -21.1813203985       19.7175542534      -13.5698346635  SOLV      3821            0.0000000000
     11577      3832  TIP3      H2            -21.3626603985       19.3212142534      -15.0196346635  SOLV      3821            0.0000000000
     11578      3833  TIP3      OH2           -20.5378803985       20.4925442534      -18.8651846635  SOLV      3822            0.0000000000
     11579      3833  TIP3      H1            -20.0637103985       21.0835342534      -19.4500946635  SOLV      3822            0.0000000000
     11580      3833  TIP3      H2            -21.2552403985       21.0228342534      -18.5181746635  SOLV      3822            0.0000000000
     11581      3834  TIP3      OH2           -10.3690703985       24.0310242534       -8.7926046635  SOLV      3823            0.0000000000
     11582      3834  TIP3      H1            -10.0455903985       23.3999942534       -9.4355546635  SOLV      3823            0.0000000000
     11583      3834  TIP3      H2            -10.8091403985       23.4962442534       -8.1318646635  SOLV      3823            0.0000000000
     11584      3835  TIP3      OH2            -9.1865903985       19.1932042534      -10.7443046635  SOLV      3824            0.0000000000
     11585      3835  TIP3      H1             -9.8634303985       19.3245142534      -10.0803346635  SOLV      3824            0.0000000000
     11586      3835  TIP3      H2             -9.6721003985       19.0381542534      -11.5545346635  SOLV      3824            0.0000000000
     11587      3836  TIP3      OH2           -16.4362403985       22.7816842534      -19.9586546635  SOLV      3825            0.0000000000
     11588      3836  TIP3      H1            -16.9787303985       22.4020642534      -20.6498946635  SOLV      3825            0.0000000000
     11589      3836  TIP3      H2            -15.6027503985       22.9761542534      -20.3872446635  SOLV      3825            0.0000000000
     11590      3837  TIP3      OH2            -5.8990803985       34.8647442534       -4.4675446635  SOLV      3826            0.0000000000
     11591      3837  TIP3      H1             -5.6992103985       35.2889342534       -5.3020146635  SOLV      3826            0.0000000000
     11592      3837  TIP3      H2             -5.2437103985       35.2085642534       -3.8605046635  SOLV      3826            0.0000000000
     11593      3838  TIP3      OH2           -18.3011003985       27.3388742534       -4.8594946635  SOLV      3827            0.0000000000
     11594      3838  TIP3      H1            -17.5688603985       27.5934642534       -4.2980446635  SOLV      3827            0.0000000000
     11595      3838  TIP3      H2            -19.0812303985       27.5434142534       -4.3439546635  SOLV      3827            0.0000000000
     11596      3839  TIP3      OH2           -12.2718103985       22.7458742534      -12.1215246635  SOLV      3828            0.0000000000
     11597      3839  TIP3      H1            -11.7074703985       22.1995342534      -12.6685646635  SOLV      3828            0.0000000000
     11598      3839  TIP3      H2            -12.4194703985       22.2240642534      -11.3327646635  SOLV      3828            0.0000000000
     11599      3840  TIP3      OH2           -17.2698403985       18.8824842534      -15.7030446635  SOLV      3829            0.0000000000
     11600      3840  TIP3      H1            -17.5868903985       17.9800142534      -15.7385046635  SOLV      3829            0.0000000000
     11601      3840  TIP3      H2            -16.4884303985       18.8842242534      -16.2558846635  SOLV      3829            0.0000000000
     11602      3841  TIP3      OH2           -13.6452203985       21.1344842534       -9.7074846635  SOLV      3830            0.0000000000
     11603      3841  TIP3      H1            -14.4806903985       21.5884342534       -9.5972446635  SOLV      3830            0.0000000000
     11604      3841  TIP3      H2            -13.1211603985       21.4103342534       -8.9554946635  SOLV      3830            0.0000000000
     11605      3842  TIP3      OH2           -13.1009603985       27.3472542534      -18.0228446635  SOLV      3831            0.0000000000
     11606      3842  TIP3      H1            -13.8458603985       26.8397842534      -18.3450546635  SOLV      3831            0.0000000000
     11607      3842  TIP3      H2            -13.2352403985       27.3960542534      -17.0763646635  SOLV      3831            0.0000000000
     11608      3843  TIP3      OH2            -5.9510703985       26.4800742534       -9.2360846635  SOLV      3832            0.0000000000
     11609      3843  TIP3      H1             -5.3091903985       26.9367042534       -9.7798646635  SOLV      3832            0.0000000000
     11610      3843  TIP3      H2             -6.7813803985       26.5933142534       -9.6986746635  SOLV      3832            0.0000000000
     11611      3844  TIP3      OH2            -9.2032803985       20.1612442534      -19.8235846635  SOLV      3833            0.0000000000
     11612      3844  TIP3      H1            -10.1418603985       20.2728042534      -19.9747046635  SOLV      3833            0.0000000000
     11613      3844  TIP3      H2             -8.9060703985       21.0179342534      -19.5170146635  SOLV      3833            0.0000000000
     11614      3845  TIP3      OH2           -11.5817503985       27.5315842534       -6.7859346635  SOLV      3834            0.0000000000
     11615      3845  TIP3      H1            -11.9271403985       27.1498242534       -5.9789746635  SOLV      3834            0.0000000000
     11616      3845  TIP3      H2            -11.7817403985       28.4649442534       -6.7146446635  SOLV      3834            0.0000000000
     11617      3846  TIP3      OH2            -8.4849303985       22.0285142534      -18.1628446635  SOLV      3835            0.0000000000
     11618      3846  TIP3      H1             -7.5930303985       21.8910142534      -17.8437246635  SOLV      3835            0.0000000000
     11619      3846  TIP3      H2             -8.4285703985       22.8191242534      -18.6994946635  SOLV      3835            0.0000000000
     11620      3847  TIP3      OH2           -17.9761303985       26.6422542534      -12.2530546635  SOLV      3836            0.0000000000
     11621      3847  TIP3      H1            -17.2314103985       26.6398242534      -12.8544046635  SOLV      3836            0.0000000000
     11622      3847  TIP3      H2            -17.8984703985       25.8186342534      -11.7715446635  SOLV      3836            0.0000000000
     11623      3848  TIP3      OH2           -10.9755503985       28.8056842534      -18.9973846635  SOLV      3837            0.0000000000
     11624      3848  TIP3      H1            -11.2707103985       29.6324742534      -18.6159046635  SOLV      3837            0.0000000000
     11625      3848  TIP3      H2            -11.6785503985       28.1863742534      -18.8012446635  SOLV      3837            0.0000000000
     11626      3849  TIP3      OH2           -20.9681603985       25.1029442534       -6.9382046635  SOLV      3838            0.0000000000
     11627      3849  TIP3      H1            -20.7453003985       24.6849042534       -6.1064546635  SOLV      3838            0.0000000000
     11628      3849  TIP3      H2            -21.5701503985       24.4904442534       -7.3609246635  SOLV      3838            0.0000000000
     11629      3850  TIP3      OH2           -13.9516703985       24.6199342534       -4.7252346635  SOLV      3839            0.0000000000
     11630      3850  TIP3      H1            -14.2475903985       24.4542342534       -5.6203246635  SOLV      3839            0.0000000000
     11631      3850  TIP3      H2            -13.0201503985       24.3999642534       -4.7358446635  SOLV      3839            0.0000000000
     11632      3851  TIP3      OH2            -9.3313903985       29.9931342534       -6.8354346635  SOLV      3840            0.0000000000
     11633      3851  TIP3      H1            -10.2319603985       30.1763942534       -7.1030446635  SOLV      3840            0.0000000000
     11634      3851  TIP3      H2             -9.2972803985       30.2520642534       -5.9145546635  SOLV      3840            0.0000000000
     11635      3852  TIP3      OH2            -3.6000603985       22.2379242534      -18.4681746635  SOLV      3841            0.0000000000
     11636      3852  TIP3      H1             -4.1544303985       21.8417242534      -19.1404246635  SOLV      3841            0.0000000000
     11637      3852  TIP3      H2             -3.4997003985       23.1484442534      -18.7458446635  SOLV      3841            0.0000000000
     11638      3853  TIP3      OH2            -3.6368603985       28.0380942534       -5.6310246635  SOLV      3842            0.0000000000
     11639      3853  TIP3      H1             -4.4880103985       28.2764742534       -5.9983846635  SOLV      3842            0.0000000000
     11640      3853  TIP3      H2             -3.0465203985       28.0214142534       -6.3843146635  SOLV      3842            0.0000000000
     11641      3854  TIP3      OH2            -5.3048903985       31.0239642534      -18.0029646635  SOLV      3843            0.0000000000
     11642      3854  TIP3      H1             -5.6777803985       30.1983442534      -17.6939046635  SOLV      3843            0.0000000000
     11643      3854  TIP3      H2             -5.0275403985       30.8409042534      -18.9006246635  SOLV      3843            0.0000000000
     11644      3855  TIP3      OH2            -8.1445003985       25.8319142534      -10.9817746635  SOLV      3844            0.0000000000
     11645      3855  TIP3      H1             -9.0728103985       25.6001042534      -11.0088446635  SOLV      3844            0.0000000000
     11646      3855  TIP3      H2             -7.6933903985       25.0548942534      -11.3118946635  SOLV      3844            0.0000000000
     11647      3856  TIP3      OH2           -15.6011903985       30.1600742534      -14.8489046635  SOLV      3845            0.0000000000
     11648      3856  TIP3      H1            -15.0739703985       30.9335142534      -15.0490246635  SOLV      3845            0.0000000000
     11649      3856  TIP3      H2            -16.4813403985       30.3849942534      -15.1505046635  SOLV      3845            0.0000000000
     11650      3857  TIP3      OH2           -19.8464203985       25.0224842534      -20.2616646635  SOLV      3846            0.0000000000
     11651      3857  TIP3      H1            -19.2304303985       25.6492042534      -19.8821846635  SOLV      3846            0.0000000000
     11652      3857  TIP3      H2            -20.7081603985       25.3384642534      -19.9900146635  SOLV      3846            0.0000000000
     11653      3858  TIP3      OH2           -14.1739603985       27.8230642534      -15.2724746635  SOLV      3847            0.0000000000
     11654      3858  TIP3      H1            -14.4149603985       28.7485042534      -15.2309446635  SOLV      3847            0.0000000000
     11655      3858  TIP3      H2            -14.9146003985       27.3641942534      -14.8760846635  SOLV      3847            0.0000000000
     11656      3859  TIP3      OH2           -13.6593003985       31.9724242534       -8.9573646635  SOLV      3848            0.0000000000
     11657      3859  TIP3      H1            -13.2968303985       32.8269842534       -9.1909246635  SOLV      3848            0.0000000000
     11658      3859  TIP3      H2            -13.1277803985       31.6805842534       -8.2167346635  SOLV      3848            0.0000000000
     11659      3860  TIP3      OH2           -15.4908803985       32.8448242534      -15.7272546635  SOLV      3849            0.0000000000
     11660      3860  TIP3      H1            -16.4408303985       32.9505642534      -15.6759246635  SOLV      3849            0.0000000000
     11661      3860  TIP3      H2            -15.1390703985       33.6655642534      -15.3825046635  SOLV      3849            0.0000000000
     11662      3861  TIP3      OH2           -10.1152203985       28.0714942534       -9.2568046635  SOLV      3850            0.0000000000
     11663      3861  TIP3      H1            -10.5410903985       27.8436642534       -8.4304046635  SOLV      3850            0.0000000000
     11664      3861  TIP3      H2             -9.5346403985       27.3326742534       -9.4392746635  SOLV      3850            0.0000000000
     11665      3862  TIP3      OH2            -7.9123303985       29.0005442534      -20.1829046635  SOLV      3851            0.0000000000
     11666      3862  TIP3      H1             -7.5590203985       28.6205242534      -19.3785546635  SOLV      3851            0.0000000000
     11667      3862  TIP3      H2             -8.8609803985       28.9070242534      -20.0959746635  SOLV      3851            0.0000000000
     11668      3863  TIP3      OH2            -7.4568003985       32.6234442534       -6.7873246635  SOLV      3852            0.0000000000
     11669      3863  TIP3      H1             -8.0584803985       32.0677342534       -7.2826946635  SOLV      3852            0.0000000000
     11670      3863  TIP3      H2             -7.1754303985       33.2904242534       -7.4135846635  SOLV      3852            0.0000000000
     11671      3864  TIP3      OH2            -3.4088903985       33.4797942534      -19.9818846635  SOLV      3853            0.0000000000
     11672      3864  TIP3      H1             -2.6651003985       34.0658442534      -20.1217246635  SOLV      3853            0.0000000000
     11673      3864  TIP3      H2             -4.1030803985       34.0483742534      -19.6486446635  SOLV      3853            0.0000000000
     11674      3865  TIP3      OH2           -19.3342103985       19.8562142534       -7.3800646635  SOLV      3854            0.0000000000
     11675      3865  TIP3      H1            -20.2269803985       20.1947542534       -7.4476646635  SOLV      3854            0.0000000000
     11676      3865  TIP3      H2            -19.4329303985       19.0008242534       -6.9619846635  SOLV      3854            0.0000000000
     11677      3866  TIP3      OH2            -7.0464003985       27.6727442534      -17.9561146635  SOLV      3855            0.0000000000
     11678      3866  TIP3      H1             -7.3236403985       26.9446742534      -17.4000046635  SOLV      3855            0.0000000000
     11679      3866  TIP3      H2             -6.1191003985       27.7919442534      -17.7508546635  SOLV      3855            0.0000000000
     11680      3867  TIP3      OH2           -19.6830103985       31.6606542534       -8.9451246635  SOLV      3856            0.0000000000
     11681      3867  TIP3      H1            -19.4659803985       30.7288942534       -8.9761546635  SOLV      3856            0.0000000000
     11682      3867  TIP3      H2            -19.4366603985       31.9351542534       -8.0618446635  SOLV      3856            0.0000000000
     11683      3868  TIP3      OH2           -13.8215503985       30.1121542534      -21.7359046635  SOLV      3857            0.0000000000
     11684      3868  TIP3      H1            -13.5825703985       29.3639642534      -22.2830146635  SOLV      3857            0.0000000000
     11685      3868  TIP3      H2            -14.0904203985       29.7243242534      -20.9031246635  SOLV      3857            0.0000000000
     11686      3869  TIP3      OH2           -14.8844903985       29.6825342534      -19.2796446635  SOLV      3858            0.0000000000
     11687      3869  TIP3      H1            -14.7376903985       29.1625142534      -18.4895546635  SOLV      3858            0.0000000000
     11688      3869  TIP3      H2            -14.8873203985       30.5892942534      -18.9730546635  SOLV      3858            0.0000000000
     11689      3870  TIP3      OH2           -18.4313803985       26.9348642534      -18.7691046635  SOLV      3859            0.0000000000
     11690      3870  TIP3      H1            -19.1174503985       27.2871142534      -18.2021346635  SOLV      3859            0.0000000000
     11691      3870  TIP3      H2            -17.9085903985       27.6978242534      -19.0156746635  SOLV      3859            0.0000000000
     11692      3871  TIP3      OH2           -10.5998703985       19.5972442534       -8.4902046635  SOLV      3860            0.0000000000
     11693      3871  TIP3      H1             -9.9010803985       19.6711142534       -7.8402346635  SOLV      3860            0.0000000000
     11694      3871  TIP3      H2            -10.9807303985       18.7327442534       -8.3359146635  SOLV      3860            0.0000000000
     11695      3872  TIP3      OH2            -9.8153803985       19.2494142534      -17.3929746635  SOLV      3861            0.0000000000
     11696      3872  TIP3      H1             -9.5955503985       19.7209542534      -18.1964346635  SOLV      3861            0.0000000000
     11697      3872  TIP3      H2             -9.2569803985       19.6436742534      -16.7229146635  SOLV      3861            0.0000000000
     11698      3873  TIP3      OH2           -12.1467703985       31.3798942534      -18.5302246635  SOLV      3862            0.0000000000
     11699      3873  TIP3      H1            -12.9631603985       31.8768642534      -18.4777946635  SOLV      3862            0.0000000000
     11700      3873  TIP3      H2            -11.6171403985       31.8552442534      -19.1703446635  SOLV      3862            0.0000000000
     11701      3874  TIP3      OH2           -12.6153903985       20.9772942534      -16.5581346635  SOLV      3863            0.0000000000
     11702      3874  TIP3      H1            -11.8031303985       21.4816142534      -16.5119646635  SOLV      3863            0.0000000000
     11703      3874  TIP3      H2            -12.8600903985       20.8322642534      -15.6441746635  SOLV      3863            0.0000000000
     11704      3875  TIP3      OH2           -12.0797503985       21.9635642534       -7.3734746635  SOLV      3864            0.0000000000
     11705      3875  TIP3      H1            -11.9607203985       22.5371042534       -6.6164346635  SOLV      3864            0.0000000000
     11706      3875  TIP3      H2            -11.4242903985       21.2755042534       -7.2586946635  SOLV      3864            0.0000000000
     11707      3876  TIP3      OH2           -14.8084603985       32.4236142534      -18.5485346635  SOLV      3865            0.0000000000
     11708      3876  TIP3      H1            -14.6475903985       33.2233642534      -19.0492746635  SOLV      3865            0.0000000000
     11709      3876  TIP3      H2            -15.0056803985       32.7302142534      -17.6634746635  SOLV      3865            0.0000000000
     11710      3877  TIP3      OH2           -16.0740203985       19.1215342534      -18.9327746635  SOLV      3866            0.0000000000
     11711      3877  TIP3      H1            -16.1575403985       20.0098442534      -18.5861346635  SOLV      3866            0.0000000000
     11712      3877  TIP3      H2            -15.1839903985       18.8562042534      -18.7010946635  SOLV      3866            0.0000000000
     11713      3878  TIP3      OH2            -5.8751703985       19.8705942534       -6.5385046635  SOLV      3867            0.0000000000
     11714      3878  TIP3      H1             -6.7915903985       20.1327642534       -6.6261346635  SOLV      3867            0.0000000000
     11715      3878  TIP3      H2             -5.5396703985       19.8674942534       -7.4349746635  SOLV      3867            0.0000000000
     11716      3879  TIP3      OH2            -7.2730703985       23.6206942534      -12.4427746635  SOLV      3868            0.0000000000
     11717      3879  TIP3      H1             -8.0706303985       23.2057142534      -12.7712746635  SOLV      3868            0.0000000000
     11718      3879  TIP3      H2             -6.8279603985       22.9300642534      -11.9517246635  SOLV      3868            0.0000000000
     11719      3880  TIP3      OH2           -17.8154903985       29.5487542534      -19.8723246635  SOLV      3869            0.0000000000
     11720      3880  TIP3      H1            -17.2233403985       30.2482342534      -19.5960846635  SOLV      3869            0.0000000000
     11721      3880  TIP3      H2            -17.3561903985       29.1157042534      -20.5918646635  SOLV      3869            0.0000000000
     11722      3881  TIP3      OH2           -19.4995703985       22.2130542534      -20.7563846635  SOLV      3870            0.0000000000
     11723      3881  TIP3      H1            -19.5443103985       23.1523642534      -20.5776846635  SOLV      3870            0.0000000000
     11724      3881  TIP3      H2            -20.3872503985       21.9775442534      -21.0261746635  SOLV      3870            0.0000000000
     11725      3882  TIP3      OH2            -6.1866103985       32.8769442534      -10.8204246635  SOLV      3871            0.0000000000
     11726      3882  TIP3      H1             -6.3421803985       33.5553842534      -11.4774946635  SOLV      3871            0.0000000000
     11727      3882  TIP3      H2             -5.2539703985       32.9488742534      -10.6173646635  SOLV      3871            0.0000000000
     11728      3883  TIP3      OH2           -18.6913703985       16.9947142534      -12.0832846635  SOLV      3872            0.0000000000
     11729      3883  TIP3      H1            -18.9203903985       17.0539642534      -13.0107846635  SOLV      3872            0.0000000000
     11730      3883  TIP3      H2            -19.1340303985       16.2032642534      -11.7768746635  SOLV      3872            0.0000000000
     11731      3884  TIP3      OH2           -19.7610403985       30.9354242534      -15.9227046635  SOLV      3873            0.0000000000
     11732      3884  TIP3      H1            -20.5931803985       31.4076942534      -15.8955646635  SOLV      3873            0.0000000000
     11733      3884  TIP3      H2            -19.2152103985       31.4451842534      -16.5213946635  SOLV      3873            0.0000000000
     11734      3885  TIP3      OH2           -20.4726703985       33.5477942534       -4.5929046635  SOLV      3874            0.0000000000
     11735      3885  TIP3      H1            -19.9324503985       33.3311942534       -3.8329846635  SOLV      3874            0.0000000000
     11736      3885  TIP3      H2            -20.9538703985       32.7423942534       -4.7826546635  SOLV      3874            0.0000000000
     11737      3886  TIP3      OH2           -15.8753303985       32.4672342534       -2.9724846635  SOLV      3875            0.0000000000
     11738      3886  TIP3      H1            -15.1076103985       32.0083142534       -2.6315646635  SOLV      3875            0.0000000000
     11739      3886  TIP3      H2            -15.8967103985       32.2412142534       -3.9023646635  SOLV      3875            0.0000000000
     11740      3887  TIP3      OH2           -11.7833703985       31.9752942534      -21.5973046635  SOLV      3876            0.0000000000
     11741      3887  TIP3      H1            -12.4272703985       31.3441542534      -21.2759346635  SOLV      3876            0.0000000000
     11742      3887  TIP3      H2            -11.0215403985       31.4440942534      -21.8289546635  SOLV      3876            0.0000000000
     11743      3888  TIP3      OH2            -9.2984603985       30.8473442534       -4.2433346635  SOLV      3877            0.0000000000
     11744      3888  TIP3      H1             -9.6495103985       29.9906442534       -4.0002946635  SOLV      3877            0.0000000000
     11745      3888  TIP3      H2             -8.5721403985       30.9900142534       -3.6364346635  SOLV      3877            0.0000000000
     11746      3889  TIP3      OH2            -7.1790803985       31.7922842534      -21.3635046635  SOLV      3878            0.0000000000
     11747      3889  TIP3      H1             -6.8960403985       30.9978042534      -20.9108146635  SOLV      3878            0.0000000000
     11748      3889  TIP3      H2             -6.4392903985       32.0253842534      -21.9243946635  SOLV      3878            0.0000000000
     11749      3890  TIP3      OH2           -20.5657203985       27.3582042534       -3.6384746635  SOLV      3879            0.0000000000
     11750      3890  TIP3      H1            -20.4216703985       26.4562742534       -3.9248046635  SOLV      3879            0.0000000000
     11751      3890  TIP3      H2            -21.3379803985       27.6444142534       -4.1262446635  SOLV      3879            0.0000000000
     11752      3891  TIP3      OH2           -16.2243503985       27.7017742534      -21.5060146635  SOLV      3880            0.0000000000
     11753      3891  TIP3      H1            -16.1599403985       26.9077342534      -20.9753746635  SOLV      3880            0.0000000000
     11754      3891  TIP3      H2            -15.5714303985       27.5830542534      -22.1958146635  SOLV      3880            0.0000000000
     11755      3892  TIP3      OH2           -13.9101103985       27.3280142534       -4.2058346635  SOLV      3881            0.0000000000
     11756      3892  TIP3      H1            -14.2387303985       27.5988242534       -5.0630946635  SOLV      3881            0.0000000000
     11757      3892  TIP3      H2            -13.7582903985       26.3869942534       -4.2933346635  SOLV      3881            0.0000000000
     11758      3893  TIP3      OH2           -10.8720103985       28.7489442534      -21.7702146635  SOLV      3882            0.0000000000
     11759      3893  TIP3      H1            -11.1406003985       28.9291542534      -20.8693246635  SOLV      3882            0.0000000000
     11760      3893  TIP3      H2            -11.0784503985       27.8235642534      -21.9016346635  SOLV      3882            0.0000000000
     11761      3894  TIP3      OH2            -8.1755903985       27.2437442534       -6.8226046635  SOLV      3883            0.0000000000
     11762      3894  TIP3      H1             -7.4301103985       27.8321142534       -6.9422046635  SOLV      3883            0.0000000000
     11763      3894  TIP3      H2             -8.9329103985       27.8257142534       -6.7592946635  SOLV      3883            0.0000000000
     11764      3895  TIP3      OH2           -19.7330703985       24.5585342534       -4.2185446635  SOLV      3884            0.0000000000
     11765      3895  TIP3      H1            -19.3249503985       23.7011942534       -4.3394846635  SOLV      3884            0.0000000000
     11766      3895  TIP3      H2            -19.9933103985       24.5726642534       -3.2975146635  SOLV      3884            0.0000000000
     11767      3896  TIP3      OH2           -15.0749703985       25.6743942534      -19.2002146635  SOLV      3885            0.0000000000
     11768      3896  TIP3      H1            -15.5347703985       25.1902242534      -18.5143646635  SOLV      3885            0.0000000000
     11769      3896  TIP3      H2            -14.8201003985       25.0059342534      -19.8361646635  SOLV      3885            0.0000000000
     11770      3897  TIP3      OH2           -15.7860403985       23.5671042534       -6.8442546635  SOLV      3886            0.0000000000
     11771      3897  TIP3      H1            -16.4044303985       24.2417642534       -6.5637846635  SOLV      3886            0.0000000000
     11772      3897  TIP3      H2            -15.4419203985       23.8884942534       -7.6776346635  SOLV      3886            0.0000000000
     11773      3898  TIP3      OH2           -14.0039303985       23.9175742534      -20.9378946635  SOLV      3887            0.0000000000
     11774      3898  TIP3      H1            -14.1844303985       23.7626942534      -21.8650646635  SOLV      3887            0.0000000000
     11775      3898  TIP3      H2            -13.0538803985       24.0254442534      -20.8931046635  SOLV      3887            0.0000000000
     11776      3899  TIP3      OH2           -10.7662203985       26.0386342534       -3.5667746635  SOLV      3888            0.0000000000
     11777      3899  TIP3      H1             -9.8131003985       26.1225442534       -3.5941746635  SOLV      3888            0.0000000000
     11778      3899  TIP3      H2            -10.9267603985       25.3268142534       -2.9472846635  SOLV      3888            0.0000000000
     11779      3900  TIP3      OH2            -4.6141003985       26.2719942534      -21.4920846635  SOLV      3889            0.0000000000
     11780      3900  TIP3      H1             -4.8876203985       25.8475442534      -22.3052546635  SOLV      3889            0.0000000000
     11781      3900  TIP3      H2             -4.5746903985       27.2034442534      -21.7090446635  SOLV      3889            0.0000000000
     11782      3901  TIP3      OH2           -15.4466703985       20.9221842534       -5.7619446635  SOLV      3890            0.0000000000
     11783      3901  TIP3      H1            -15.2965803985       20.1933142534       -6.3639746635  SOLV      3890            0.0000000000
     11784      3901  TIP3      H2            -15.4444303985       21.6993542534       -6.3207246635  SOLV      3890            0.0000000000
     11785      3902  TIP3      OH2           -15.0341003985       19.2917642534       -8.2692046635  SOLV      3891            0.0000000000
     11786      3902  TIP3      H1            -14.4983503985       19.7434342534       -8.9212746635  SOLV      3891            0.0000000000
     11787      3902  TIP3      H2            -15.8861403985       19.1837442534       -8.6917946635  SOLV      3891            0.0000000000
     11788      3903  TIP3      OH2           -13.4522603985       24.7313842534       -8.0296846635  SOLV      3892            0.0000000000
     11789      3903  TIP3      H1            -12.7017803985       24.5751342534       -8.6029046635  SOLV      3892            0.0000000000
     11790      3903  TIP3      H2            -13.7914303985       25.5830442534       -8.3051346635  SOLV      3892            0.0000000000
     11791      3904  TIP3      OH2            -9.0366403985       22.5465642534       -3.0011546635  SOLV      3893            0.0000000000
     11792      3904  TIP3      H1             -8.8445103985       21.6155042534       -3.1127046635  SOLV      3893            0.0000000000
     11793      3904  TIP3      H2             -8.1790103985       22.9715142534       -3.0116146635  SOLV      3893            0.0000000000
     11794      3905  TIP3      OH2            -7.7199203985       25.3350842534       -4.9238846635  SOLV      3894            0.0000000000
     11795      3905  TIP3      H1             -8.0014203985       26.0445442534       -5.5015046635  SOLV      3894            0.0000000000
     11796      3905  TIP3      H2             -6.7774903985       25.2623842534       -5.0747646635  SOLV      3894            0.0000000000
     11797      3906  TIP3      OH2           -16.9680403985       22.1205342534       -3.8503846635  SOLV      3895            0.0000000000
     11798      3906  TIP3      H1            -17.7351403985       21.5880142534       -4.0606246635  SOLV      3895            0.0000000000
     11799      3906  TIP3      H2            -16.2891403985       21.8105742534       -4.4497546635  SOLV      3895            0.0000000000
     11800      3907  TIP3      OH2           -14.2285503985       16.7483342534       -7.8378446635  SOLV      3896            0.0000000000
     11801      3907  TIP3      H1            -14.3265903985       17.6946542534       -7.9432246635  SOLV      3896            0.0000000000
     11802      3907  TIP3      H2            -14.9709303985       16.3757142534       -8.3134946635  SOLV      3896            0.0000000000
     11803      3908  TIP3      OH2           -12.9645003985       21.0698742534       -4.2740046635  SOLV      3897            0.0000000000
     11804      3908  TIP3      H1            -13.1999603985       20.8505442534       -3.3725146635  SOLV      3897            0.0000000000
     11805      3908  TIP3      H2            -13.7478103985       20.8629942534       -4.7837546635  SOLV      3897            0.0000000000
     11806      3909  TIP3      OH2           -10.2488403985       20.1972242534       -5.1986546635  SOLV      3898            0.0000000000
     11807      3909  TIP3      H1            -11.1963003985       20.2291942534       -5.0663246635  SOLV      3898            0.0000000000
     11808      3909  TIP3      H2             -9.9361703985       19.5719342534       -4.5448346635  SOLV      3898            0.0000000000
     11809      3910  TIP3      OH2            -8.6146903985       18.8313342534       -3.1934646635  SOLV      3899            0.0000000000
     11810      3910  TIP3      H1             -8.7115103985       17.8790642534       -3.1992746635  SOLV      3899            0.0000000000
     11811      3910  TIP3      H2             -8.9363803985       19.1000142534       -2.3329146635  SOLV      3899            0.0000000000
     11812      3911  TIP3      OH2           -18.7877603985       20.0409142534       -4.1459146635  SOLV      3900            0.0000000000
     11813      3911  TIP3      H1            -18.5760203985       19.3345242534       -4.7561646635  SOLV      3900            0.0000000000
     11814      3911  TIP3      H2            -18.8990103985       19.6035142534       -3.3017946635  SOLV      3900            0.0000000000
     11815      3912  TIP3      OH2           -14.0067403985       16.0420742534       -5.1665646635  SOLV      3901            0.0000000000
     11816      3912  TIP3      H1            -13.2949003985       15.4022942534       -5.1806546635  SOLV      3901            0.0000000000
     11817      3912  TIP3      H2            -14.1077003985       16.3089042534       -6.0802546635  SOLV      3901            0.0000000000
     11818      3913  TIP3      OH2           -13.6529903985       17.7249142534       -3.1129346635  SOLV      3902            0.0000000000
     11819      3913  TIP3      H1            -13.7847703985       17.2492942534       -3.9330846635  SOLV      3902            0.0000000000
     11820      3913  TIP3      H2            -14.2522503985       18.4692742534       -3.1682246635  SOLV      3902            0.0000000000
     11821      3914  TIP3      OH2           -14.1067603985       34.6079442534      -19.9365346635  SOLV      3903            0.0000000000
     11822      3914  TIP3      H1            -13.1736903985       34.7658142534      -19.7926946635  SOLV      3903            0.0000000000
     11823      3914  TIP3      H2            -14.3708803985       35.2832442534      -20.5613846635  SOLV      3903            0.0000000000
     11824      3915  TIP3      OH2           -20.5382703985       29.2443242534      -20.4537246635  SOLV      3904            0.0000000000
     11825      3915  TIP3      H1            -19.6243503985       29.3232142534      -20.1803346635  SOLV      3904            0.0000000000
     11826      3915  TIP3      H2            -20.5309603985       28.5572842534      -21.1201646635  SOLV      3904            0.0000000000
     11827      3916  TIP3      OH2           -21.8892103985       34.6371742534      -15.3763346635  SOLV      3905            0.0000000000
     11828      3916  TIP3      H1            -22.5365003985       34.1753442534      -15.9092146635  SOLV      3905            0.0000000000
     11829      3916  TIP3      H2            -21.5347503985       33.9655042534      -14.7937146635  SOLV      3905            0.0000000000
     11830      3917  TIP3      OH2           -21.0192903985       32.7178742534      -13.5717146635  SOLV      3906            0.0000000000
     11831      3917  TIP3      H1            -21.3536103985       31.8376042534      -13.3996946635  SOLV      3906            0.0000000000
     11832      3917  TIP3      H2            -20.7970503985       33.0633742534      -12.7071546635  SOLV      3906            0.0000000000
     11833      3918  TIP3      OH2            -3.4708103985       33.5275142534      -10.5912346635  SOLV      3907            0.0000000000
     11834      3918  TIP3      H1             -3.4921403985       33.7123542534       -9.6522946635  SOLV      3907            0.0000000000
     11835      3918  TIP3      H2             -2.7801903985       34.0959142534      -10.9320946635  SOLV      3907            0.0000000000
     11836      3919  TIP3      OH2            -3.9075203985       33.0946242534       -7.6693246635  SOLV      3908            0.0000000000
     11837      3919  TIP3      H1             -4.3946503985       32.3590342534       -8.0405846635  SOLV      3908            0.0000000000
     11838      3919  TIP3      H2             -3.3582503985       32.7010142534       -6.9913846635  SOLV      3908            0.0000000000
     11839      3920  TIP3      OH2            -5.4567903985       28.8844342534       -3.0312946635  SOLV      3909            0.0000000000
     11840      3920  TIP3      H1             -6.3226803985       28.7794042534       -2.6370646635  SOLV      3909            0.0000000000
     11841      3920  TIP3      H2             -5.0802003985       29.6427642534       -2.5848246635  SOLV      3909            0.0000000000
     11842      3921  TIP3      OH2            -4.1558203985       27.1408042534      -17.5170446635  SOLV      3910            0.0000000000
     11843      3921  TIP3      H1             -3.3056803985       27.5618942534      -17.3898846635  SOLV      3910            0.0000000000
     11844      3921  TIP3      H2             -4.1503103985       26.4008142534      -16.9099046635  SOLV      3910            0.0000000000
     11845      3922  TIP3      OH2            -3.7612603985       25.1945442534      -15.6934746635  SOLV      3911            0.0000000000
     11846      3922  TIP3      H1             -4.4878003985       24.7148042534      -15.2957146635  SOLV      3911            0.0000000000
     11847      3922  TIP3      H2             -3.1799303985       25.4000142534      -14.9613146635  SOLV      3911            0.0000000000
     11848      3923  TIP3      OH2            -4.0021403985       27.9792942534      -10.7457146635  SOLV      3912            0.0000000000
     11849      3923  TIP3      H1             -3.1687203985       27.6012942534      -11.0263546635  SOLV      3912            0.0000000000
     11850      3923  TIP3      H2             -3.8901103985       28.9224142534      -10.8648046635  SOLV      3912            0.0000000000
     11851      3924  TIP3      OH2            -5.5159103985       30.8570442534       -8.4388746635  SOLV      3913            0.0000000000
     11852      3924  TIP3      H1             -6.1633803985       31.1821942534       -7.8133546635  SOLV      3913            0.0000000000
     11853      3924  TIP3      H2             -6.0335103985       30.4168142534       -9.1130446635  SOLV      3913            0.0000000000
     11854      3925  TIP3      OH2            -3.4929503985       25.0953942534      -19.3023446635  SOLV      3914            0.0000000000
     11855      3925  TIP3      H1             -4.0148403985       25.4518042534      -20.0212546635  SOLV      3914            0.0000000000
     11856      3925  TIP3      H2             -3.5260303985       25.7701742534      -18.6242546635  SOLV      3914            0.0000000000
     11857      3926  TIP3      OH2            -5.1440503985       22.3349542534      -20.7516346635  SOLV      3915            0.0000000000
     11858      3926  TIP3      H1             -5.0476103985       23.0016542534      -21.4316646635  SOLV      3915            0.0000000000
     11859      3926  TIP3      H2             -5.2840903985       21.5195842534      -21.2330846635  SOLV      3915            0.0000000000
     11860      3927  TIP3      OH2            -5.9745803985       23.7151942534      -15.1306046635  SOLV      3916            0.0000000000
     11861      3927  TIP3      H1             -6.1247003985       22.7700542534      -15.1508246635  SOLV      3916            0.0000000000
     11862      3927  TIP3      H2             -6.3281303985       23.9963342534      -14.2866946635  SOLV      3916            0.0000000000
     11863      3928  TIP3      OH2           -20.9393403985       25.7934142534      -11.1202246635  SOLV      3917            0.0000000000
     11864      3928  TIP3      H1            -20.7550503985       25.7115842534      -12.0559346635  SOLV      3917            0.0000000000
     11865      3928  TIP3      H2            -20.0900503985       25.6691142534      -10.6965846635  SOLV      3917            0.0000000000
     11866      3929  TIP3      OH2            -5.1182903985       25.6855242534       -5.4917746635  SOLV      3918            0.0000000000
     11867      3929  TIP3      H1             -4.5355603985       24.9507542534       -5.3000546635  SOLV      3918            0.0000000000
     11868      3929  TIP3      H2             -4.5543603985       26.4575542534       -5.4451946635  SOLV      3918            0.0000000000
     11869      3930  TIP3      OH2            -3.6215803985       23.5881042534       -4.8072346635  SOLV      3919            0.0000000000
     11870      3930  TIP3      H1             -4.4849103985       23.2093142534       -4.9727646635  SOLV      3919            0.0000000000
     11871      3930  TIP3      H2             -3.0172103985       22.8495842534       -4.8816546635  SOLV      3919            0.0000000000
     11872      3931  TIP3      OH2            -5.8966703985       19.7429342534      -21.6340846635  SOLV      3920            0.0000000000
     11873      3931  TIP3      H1             -5.2860903985       19.3716142534      -20.9972646635  SOLV      3920            0.0000000000
     11874      3931  TIP3      H2             -6.7335203985       19.3216242534      -21.4380846635  SOLV      3920            0.0000000000
     11875      3932  TIP3      OH2            -6.2641003985       21.2977742534      -16.6680946635  SOLV      3921            0.0000000000
     11876      3932  TIP3      H1             -5.9843903985       20.3908142534      -16.5439246635  SOLV      3921            0.0000000000
     11877      3932  TIP3      H2             -5.5049303985       21.7319242534      -17.0571746635  SOLV      3921            0.0000000000
     11878      3933  TIP3      OH2            -5.6522703985       21.8795142534      -11.2322046635  SOLV      3922            0.0000000000
     11879      3933  TIP3      H1             -4.7194703985       22.0915042534      -11.2666046635  SOLV      3922            0.0000000000
     11880      3933  TIP3      H2             -5.8875203985       21.9807242534      -10.3099046635  SOLV      3922            0.0000000000
     11881      3934  TIP3      OH2            -5.6230803985       22.6160442534       -8.4562646635  SOLV      3923            0.0000000000
     11882      3934  TIP3      H1             -6.4659503985       22.8840842534       -8.0902846635  SOLV      3923            0.0000000000
     11883      3934  TIP3      H2             -5.1806503985       23.4382342534       -8.6671546635  SOLV      3923            0.0000000000
     11884      3935  TIP3      OH2           -21.3418603985       21.0639142534       -4.9793446635  SOLV      3924            0.0000000000
     11885      3935  TIP3      H1            -20.4223703985       20.9417442534       -4.7430346635  SOLV      3924            0.0000000000
     11886      3935  TIP3      H2            -21.7914103985       20.3138842534       -4.5899946635  SOLV      3924            0.0000000000
     11887      3936  TIP3      OH2            -3.3399203985       16.5960642534       -3.1027646635  SOLV      3925            0.0000000000
     11888      3936  TIP3      H1             -2.9902203985       15.9424142534       -3.7082946635  SOLV      3925            0.0000000000
     11889      3936  TIP3      H2             -3.1929703985       17.4334742534       -3.5425046635  SOLV      3925            0.0000000000
     11890      3937  TIP3      OH2            -5.6506203985       18.5607042534      -16.6198946635  SOLV      3926            0.0000000000
     11891      3937  TIP3      H1             -5.4681203985       18.1118542534      -15.7943946635  SOLV      3926            0.0000000000
     11892      3937  TIP3      H2             -6.2503303985       17.9761442534      -17.0834346635  SOLV      3926            0.0000000000
     11893      3938  TIP3      OH2           -20.1206103985       19.3760742534      -12.0880546635  SOLV      3927            0.0000000000
     11894      3938  TIP3      H1            -19.6754503985       18.5843242534      -11.7860846635  SOLV      3927            0.0000000000
     11895      3938  TIP3      H2            -19.6543103985       20.0925942534      -11.6574946635  SOLV      3927            0.0000000000
     11896      3939  TIP3      OH2           -21.8165803985       22.3753742534      -11.0190346635  SOLV      3928            0.0000000000
     11897      3939  TIP3      H1            -21.3246003985       22.1544242534      -11.8098346635  SOLV      3928            0.0000000000
     11898      3939  TIP3      H2            -21.4544903985       23.2157142534      -10.7380846635  SOLV      3928            0.0000000000
     11899      3940  TIP3      OH2            -3.8202003985       18.7055242534       -4.7536346635  SOLV      3929            0.0000000000
     11900      3940  TIP3      H1             -4.7376303985       18.9762342534       -4.7892846635  SOLV      3929            0.0000000000
     11901      3940  TIP3      H2             -3.6972603985       18.1703642534       -5.5376646635  SOLV      3929            0.0000000000
     11902      3941  TIP3      OH2            -3.7840003985       18.6285142534      -20.0918646635  SOLV      3930            0.0000000000
     11903      3941  TIP3      H1             -3.3717403985       17.9070842534      -20.5670646635  SOLV      3930            0.0000000000
     11904      3941  TIP3      H2             -3.1023503985       19.2979742534      -20.0334346635  SOLV      3930            0.0000000000
     11905      3942  TIP3      OH2           -21.5029303985       18.6332842534      -16.9647946635  SOLV      3931            0.0000000000
     11906      3942  TIP3      H1            -22.4280903985       18.8419442534      -17.0942446635  SOLV      3931            0.0000000000
     11907      3942  TIP3      H2            -21.0489403985       19.1173642534      -17.6545646635  SOLV      3931            0.0000000000
     11908      3943  TIP3      OH2            -6.7322103985       33.6174542534      -15.0190546635  SOLV      3932            0.0000000000
     11909      3943  TIP3      H1             -6.0799203985       33.2696642534      -15.6271446635  SOLV      3932            0.0000000000
     11910      3943  TIP3      H2             -6.2218303985       34.1057742534      -14.3730846635  SOLV      3932            0.0000000000
     11911      3944  TIP3      OH2           -21.5393903985       17.3711842534       -8.6205446635  SOLV      3933            0.0000000000
     11912      3944  TIP3      H1            -22.2043403985       17.1252142534       -7.9774546635  SOLV      3933            0.0000000000
     11913      3944  TIP3      H2            -21.9822603985       17.9932242534       -9.1977446635  SOLV      3933            0.0000000000
     11914      3945  TIP3      OH2           -19.3474603985       30.5465942534       -4.4759646635  SOLV      3934            0.0000000000
     11915      3945  TIP3      H1            -20.1682103985       30.7212442534       -4.9364946635  SOLV      3934            0.0000000000
     11916      3945  TIP3      H2            -19.5996803985       30.4730642534       -3.5555246635  SOLV      3934            0.0000000000
     11917      3946  TIP3      OH2           -16.3931703985       31.5207142534       -8.2175646635  SOLV      3935            0.0000000000
     11918      3946  TIP3      H1            -16.8180603985       32.3305642534       -8.5001046635  SOLV      3935            0.0000000000
     11919      3946  TIP3      H2            -15.4888903985       31.6061242534       -8.5195846635  SOLV      3935            0.0000000000
     11920      3947  TIP3      OH2           -12.0820303985       32.9197142534       -5.2581946635  SOLV      3936            0.0000000000
     11921      3947  TIP3      H1            -11.8972803985       32.5863242534       -4.3801646635  SOLV      3936            0.0000000000
     11922      3947  TIP3      H2            -11.2355803985       33.2295742534       -5.5802746635  SOLV      3936            0.0000000000
     11923      3948  TIP3      OH2            -9.7369903985       34.2056042534       -6.0140546635  SOLV      3937            0.0000000000
     11924      3948  TIP3      H1             -9.0601003985       33.5728342534       -6.2541346635  SOLV      3937            0.0000000000
     11925      3948  TIP3      H2             -9.4151103985       34.6066542534       -5.2067246635  SOLV      3937            0.0000000000
     11926      3949  TIP3      OH2            -4.8196103985       16.7951542534       -6.9345546635  SOLV      3938            0.0000000000
     11927      3949  TIP3      H1             -5.6322603985       17.1201842534       -7.3220846635  SOLV      3938            0.0000000000
     11928      3949  TIP3      H2             -4.5867603985       16.0350042534       -7.4676446635  SOLV      3938            0.0000000000
     11929      3950  TIP3      OH2           -18.9915003985       34.7771042534       -8.1700346635  SOLV      3939            0.0000000000
     11930      3950  TIP3      H1            -19.7118603985       35.2172042534       -8.6212646635  SOLV      3939            0.0000000000
     11931      3950  TIP3      H2            -19.3571003985       34.5265742534       -7.3216346635  SOLV      3939            0.0000000000
     11932      3951  TIP3      OH2           -16.5242403985       34.3774942534       -9.1403146635  SOLV      3940            0.0000000000
     11933      3951  TIP3      H1            -17.3890203985       34.4493442534       -8.7363046635  SOLV      3940            0.0000000000
     11934      3951  TIP3      H2            -16.5793403985       34.9242242534       -9.9240646635  SOLV      3940            0.0000000000
     11935      3952  TIP3      OH2           -11.8136803985       34.2653842534       -9.9647146635  SOLV      3941            0.0000000000
     11936      3952  TIP3      H1            -12.2702803985       34.7943542534      -10.6188746635  SOLV      3941            0.0000000000
     11937      3952  TIP3      H2            -11.6508803985       34.8685242534       -9.2394846635  SOLV      3941            0.0000000000
     11938      3953  TIP3      OH2            -9.4860503985       33.1433442534       -9.0196846635  SOLV      3942            0.0000000000
     11939      3953  TIP3      H1            -10.3906803985       33.3083642534       -9.2854746635  SOLV      3942            0.0000000000
     11940      3953  TIP3      H2             -9.0571903985       33.9965642534       -9.0853446635  SOLV      3942            0.0000000000
     11941      3954  TIP3      OH2            -6.8818603985       34.7132542534       -8.7249046635  SOLV      3943            0.0000000000
     11942      3954  TIP3      H1             -7.0636603985       35.6291442534       -8.9354146635  SOLV      3943            0.0000000000
     11943      3954  TIP3      H2             -6.7050803985       34.3029642534       -9.5714446635  SOLV      3943            0.0000000000
     11944      3955  TIP3      OH2           -19.5766903985       33.4003542534      -11.2598546635  SOLV      3944            0.0000000000
     11945      3955  TIP3      H1            -19.5950903985       32.9748642534      -10.4026246635  SOLV      3944            0.0000000000
     11946      3955  TIP3      H2            -18.7719003985       33.0818542534      -11.6686346635  SOLV      3944            0.0000000000
     11947      3956  TIP3      OH2           -17.4353803985       32.1102242534      -12.6048646635  SOLV      3945            0.0000000000
     11948      3956  TIP3      H1            -17.6543103985       31.1939642534      -12.4352646635  SOLV      3945            0.0000000000
     11949      3956  TIP3      H2            -16.6111603985       32.2502642534      -12.1387246635  SOLV      3945            0.0000000000
     11950      3957  TIP3      OH2           -14.8981303985       32.5801542534      -11.7560646635  SOLV      3946            0.0000000000
     11951      3957  TIP3      H1            -14.6855603985       31.6920542534      -12.0429746635  SOLV      3946            0.0000000000
     11952      3957  TIP3      H2            -14.8336203985       32.5459242534      -10.8016646635  SOLV      3946            0.0000000000
     11953      3958  TIP3      OH2            -6.2470403985       16.3516142534      -12.4990246635  SOLV      3947            0.0000000000
     11954      3958  TIP3      H1             -5.6432803985       16.8991542534      -13.0009246635  SOLV      3947            0.0000000000
     11955      3958  TIP3      H2             -7.1168403985       16.6706542534      -12.7396146635  SOLV      3947            0.0000000000
     11956      3959  TIP3      OH2            -4.5200003985       17.4904842534      -14.1659346635  SOLV      3948            0.0000000000
     11957      3959  TIP3      H1             -3.9082503985       16.9760542534      -14.6925746635  SOLV      3948            0.0000000000
     11958      3959  TIP3      H2             -4.1376603985       18.3676942534      -14.1424946635  SOLV      3948            0.0000000000
     11959      3960  TIP3      OH2           -19.0630103985       16.8782442534      -14.7897446635  SOLV      3949            0.0000000000
     11960      3960  TIP3      H1            -19.8400303985       16.6437342534      -15.2971546635  SOLV      3949            0.0000000000
     11961      3960  TIP3      H2            -18.5326503985       16.0814542534      -14.7809446635  SOLV      3949            0.0000000000
     11962      3961  TIP3      OH2           -20.2266703985       16.6760542534      -18.9861346635  SOLV      3950            0.0000000000
     11963      3961  TIP3      H1            -19.7876003985       17.2871042534      -19.5777846635  SOLV      3950            0.0000000000
     11964      3961  TIP3      H2            -20.8604303985       17.2144642534      -18.5121346635  SOLV      3950            0.0000000000
     11965      3962  TIP3      OH2           -14.4837503985       16.8049542534      -14.9764346635  SOLV      3951            0.0000000000
     11966      3962  TIP3      H1            -13.6094103985       17.1933842534      -15.0060046635  SOLV      3951            0.0000000000
     11967      3962  TIP3      H2            -14.6196703985       16.5897342534      -14.0537146635  SOLV      3951            0.0000000000
     11968      3963  TIP3      OH2            -8.9269103985       16.8349342534      -13.3272646635  SOLV      3952            0.0000000000
     11969      3963  TIP3      H1             -8.8507503985       16.9300942534      -14.2766646635  SOLV      3952            0.0000000000
     11970      3963  TIP3      H2             -9.2019903985       15.9272242534      -13.1983546635  SOLV      3952            0.0000000000
     11971      3964  TIP3      OH2            -7.5736503985       16.8607142534      -17.6347646635  SOLV      3953            0.0000000000
     11972      3964  TIP3      H1             -8.2765403985       17.4756342534      -17.8446246635  SOLV      3953            0.0000000000
     11973      3964  TIP3      H2             -8.0185103985       16.0233842534      -17.5036746635  SOLV      3953            0.0000000000
     11974      3965  TIP3      OH2           -20.3257203985       32.6242742534      -18.0886246635  SOLV      3954            0.0000000000
     11975      3965  TIP3      H1            -21.0107303985       32.5861642534      -18.7561146635  SOLV      3954            0.0000000000
     11976      3965  TIP3      H2            -20.3220003985       33.5370342534      -17.8004146635  SOLV      3954            0.0000000000
     11977      3966  TIP3      OH2           -18.3657603985       18.5922042534      -20.5437246635  SOLV      3955            0.0000000000
     11978      3966  TIP3      H1            -17.8744203985       17.9624442534      -21.0711746635  SOLV      3955            0.0000000000
     11979      3966  TIP3      H2            -17.7421303985       18.8881442534      -19.8806046635  SOLV      3955            0.0000000000
     11980      3967  TIP3      OH2           -13.3397503985       18.8853542534      -18.0866746635  SOLV      3956            0.0000000000
     11981      3967  TIP3      H1            -13.1616203985       18.2386742534      -17.4038146635  SOLV      3956            0.0000000000
     11982      3967  TIP3      H2            -13.3931303985       19.7191242534      -17.6195646635  SOLV      3956            0.0000000000
     11983      3968  TIP3      OH2           -11.4613703985       33.8337642534      -19.6910046635  SOLV      3957            0.0000000000
     11984      3968  TIP3      H1            -10.5953503985       34.2005042534      -19.8691846635  SOLV      3957            0.0000000000
     11985      3968  TIP3      H2            -11.7080903985       33.3945642534      -20.5049246635  SOLV      3957            0.0000000000
     11986      3969  TIP3      OH2            -4.7524103985       33.3967942534      -17.0118946635  SOLV      3958            0.0000000000
     11987      3969  TIP3      H1             -4.9467003985       32.6490042534      -17.5769346635  SOLV      3958            0.0000000000
     11988      3969  TIP3      H2             -4.7914003985       34.1548042534      -17.5951046635  SOLV      3958            0.0000000000
     11989      3970  TIP3      OH2           -19.1052103985       17.3924342534       -5.2721246635  SOLV      3959            0.0000000000
     11990      3970  TIP3      H1            -19.4713903985       16.6266942534       -4.8296546635  SOLV      3959            0.0000000000
     11991      3970  TIP3      H2            -18.1923603985       17.4214542534       -4.9856146635  SOLV      3959            0.0000000000
     11992      3971  TIP3      OH2           -17.1321303985       16.7428742534       -3.7364146635  SOLV      3960            0.0000000000
     11993      3971  TIP3      H1            -16.2337703985       16.4688942534       -3.9210746635  SOLV      3960            0.0000000000
     11994      3971  TIP3      H2            -17.5188203985       16.0004742534       -3.2721546635  SOLV      3960            0.0000000000
     11995      3972  TIP3      OH2           -18.5076003985       33.5443542534      -21.0634146635  SOLV      3961            0.0000000000
     11996      3972  TIP3      H1            -18.7751403985       33.8306442534      -20.1901046635  SOLV      3961            0.0000000000
     11997      3972  TIP3      H2            -17.7363403985       32.9982742534      -20.9111646635  SOLV      3961            0.0000000000
     11998      3973  TIP3      OH2            -8.7109003985       16.0754042534       -3.5541346635  SOLV      3962            0.0000000000
     11999      3973  TIP3      H1             -8.6341803985       15.6494742534       -2.7003646635  SOLV      3962            0.0000000000
     12000      3973  TIP3      H2             -7.8172403985       16.0888742534       -3.8967846635  SOLV      3962            0.0000000000
     12001      3974  TIP3      OH2            -5.5347903985       32.1480342534       -4.8617146635  SOLV      3963            0.0000000000
     12002      3974  TIP3      H1             -6.3166003985       31.9618342534       -5.3816546635  SOLV      3963            0.0000000000
     12003      3974  TIP3      H2             -5.6068003985       33.0774642534       -4.6444646635  SOLV      3963            0.0000000000
     12004      3975  TIP3      OH2             8.8712496015       26.0344742534      -14.8309946635  SOLV      3964            0.0000000000
     12005      3975  TIP3      H1              8.9603596015       26.9782942534      -14.9632846635  SOLV      3964            0.0000000000
     12006      3975  TIP3      H2              8.2330096015       25.7591142534      -15.4890546635  SOLV      3964            0.0000000000
     12007      3976  TIP3      OH2             7.8043796015       25.2895442534      -11.4121746635  SOLV      3965            0.0000000000
     12008      3976  TIP3      H1              7.7661296015       24.6431742534      -10.7072146635  SOLV      3965            0.0000000000
     12009      3976  TIP3      H2              7.4820296015       24.8229842534      -12.1833046635  SOLV      3965            0.0000000000
     12010      3977  TIP3      OH2             0.1728796015       24.9037542534       -9.8191846635  SOLV      3966            0.0000000000
     12011      3977  TIP3      H1              0.2140896015       24.2780842534       -9.0959446635  SOLV      3966            0.0000000000
     12012      3977  TIP3      H2              0.8756496015       25.5276142534       -9.6371446635  SOLV      3966            0.0000000000
     12013      3978  TIP3      OH2            11.5103996015       28.2285842534      -13.1106646635  SOLV      3967            0.0000000000
     12014      3978  TIP3      H1             11.0696696015       27.5081842534      -12.6601046635  SOLV      3967            0.0000000000
     12015      3978  TIP3      H2             11.4973696015       28.9493042534      -12.4808946635  SOLV      3967            0.0000000000
     12016      3979  TIP3      OH2             1.0961896015       29.3536442534      -11.2842746635  SOLV      3968            0.0000000000
     12017      3979  TIP3      H1              0.7267096015       28.5516942534      -11.6538446635  SOLV      3968            0.0000000000
     12018      3979  TIP3      H2              2.0372996015       29.1851342534      -11.2379346635  SOLV      3968            0.0000000000
     12019      3980  TIP3      OH2            -2.2937603985       23.0139042534      -15.8913946635  SOLV      3969            0.0000000000
     12020      3980  TIP3      H1             -2.7414203985       23.8597742534      -15.9097446635  SOLV      3969            0.0000000000
     12021      3980  TIP3      H2             -2.8546403985       22.4343242534      -16.4068846635  SOLV      3969            0.0000000000
     12022      3981  TIP3      OH2            -1.5831503985       25.1758642534      -13.7655946635  SOLV      3970            0.0000000000
     12023      3981  TIP3      H1             -1.3698003985       24.4060242534      -13.2382946635  SOLV      3970            0.0000000000
     12024      3981  TIP3      H2             -0.8453903985       25.2655342534      -14.3688346635  SOLV      3970            0.0000000000
     12025      3982  TIP3      OH2             8.6219496015       33.3327542534      -12.8986246635  SOLV      3971            0.0000000000
     12026      3982  TIP3      H1              9.2415896015       32.6562242534      -13.1717046635  SOLV      3971            0.0000000000
     12027      3982  TIP3      H2              8.4136896015       33.1148342534      -11.9901346635  SOLV      3971            0.0000000000
     12028      3983  TIP3      OH2             6.1938196015       27.7216842534      -11.0060746635  SOLV      3972            0.0000000000
     12029      3983  TIP3      H1              6.4976096015       27.0358242534      -11.6006646635  SOLV      3972            0.0000000000
     12030      3983  TIP3      H2              6.9152196015       27.8405542534      -10.3882746635  SOLV      3972            0.0000000000
     12031      3984  TIP3      OH2            14.8567996015       19.3232142534      -10.1454546635  SOLV      3973            0.0000000000
     12032      3984  TIP3      H1             14.9060196015       19.9333342534       -9.4095446635  SOLV      3973            0.0000000000
     12033      3984  TIP3      H2             15.2823096015       19.7843042534      -10.8683446635  SOLV      3973            0.0000000000
     12034      3985  TIP3      OH2             9.3345196015       22.1159242534      -10.6785946635  SOLV      3974            0.0000000000
     12035      3985  TIP3      H1              9.4771096015       21.1696242534      -10.6584346635  SOLV      3974            0.0000000000
     12036      3985  TIP3      H2              9.2284196015       22.3229042534      -11.6071046635  SOLV      3974            0.0000000000
     12037      3986  TIP3      OH2             2.4893496015       20.2175642534      -13.4061146635  SOLV      3975            0.0000000000
     12038      3986  TIP3      H1              2.5324596015       21.0774142534      -13.8244846635  SOLV      3975            0.0000000000
     12039      3986  TIP3      H2              2.0317596015       19.6650342534      -14.0397946635  SOLV      3975            0.0000000000
     12040      3987  TIP3      OH2            10.2116196015       20.3481242534      -15.0052846635  SOLV      3976            0.0000000000
     12041      3987  TIP3      H1             10.8580496015       20.0194442534      -14.3805246635  SOLV      3976            0.0000000000
     12042      3987  TIP3      H2             10.7215596015       20.8660242534      -15.6281446635  SOLV      3976            0.0000000000
     12043      3988  TIP3      OH2            -0.8905003985       22.6141442534      -12.6439746635  SOLV      3977            0.0000000000
     12044      3988  TIP3      H1             -0.2368403985       22.0643142534      -12.2119646635  SOLV      3977            0.0000000000
     12045      3988  TIP3      H2             -0.8665703985       22.3400442534      -13.5607746635  SOLV      3977            0.0000000000
     12046      3989  TIP3      OH2             4.2659496015       24.1642742534      -13.4288246635  SOLV      3978            0.0000000000
     12047      3989  TIP3      H1              4.8820496015       23.6378142534      -12.9194246635  SOLV      3978            0.0000000000
     12048      3989  TIP3      H2              3.6798296015       23.5241442534      -13.8324646635  SOLV      3978            0.0000000000
     12049      3990  TIP3      OH2            15.2482596015       20.8011342534       -7.9094746635  SOLV      3979            0.0000000000
     12050      3990  TIP3      H1             14.5597196015       21.4592042534       -8.0048146635  SOLV      3979            0.0000000000
     12051      3990  TIP3      H2             15.2637196015       20.6039242534       -6.9729346635  SOLV      3979            0.0000000000
     12052      3991  TIP3      OH2             1.2995396015       19.1354042534       -9.3320346635  SOLV      3980            0.0000000000
     12053      3991  TIP3      H1              1.0807096015       19.6654642534      -10.0984346635  SOLV      3980            0.0000000000
     12054      3991  TIP3      H2              0.6316296015       19.3619542534       -8.6848946635  SOLV      3980            0.0000000000
     12055      3992  TIP3      OH2             8.6685196015       28.6355142534      -15.7881246635  SOLV      3981            0.0000000000
     12056      3992  TIP3      H1              8.3730296015       28.3127442534      -16.6394346635  SOLV      3981            0.0000000000
     12057      3992  TIP3      H2              8.3442996015       29.5351842534      -15.7468646635  SOLV      3981            0.0000000000
     12058      3993  TIP3      OH2             3.8686796015       26.8109742534       -9.0446646635  SOLV      3982            0.0000000000
     12059      3993  TIP3      H1              3.1285896015       27.4091242534       -8.9411446635  SOLV      3982            0.0000000000
     12060      3993  TIP3      H2              4.5826296015       27.3649342534       -9.3603046635  SOLV      3982            0.0000000000
     12061      3994  TIP3      OH2            11.9754596015       19.6390542534      -13.0246946635  SOLV      3983            0.0000000000
     12062      3994  TIP3      H1             11.7602596015       18.8733942534      -12.4920946635  SOLV      3983            0.0000000000
     12063      3994  TIP3      H2             12.6311996015       20.1115142534      -12.5118446635  SOLV      3983            0.0000000000
     12064      3995  TIP3      OH2             0.8932696015       21.0275842534      -11.3798146635  SOLV      3984            0.0000000000
     12065      3995  TIP3      H1              1.5068996015       21.6603442534      -11.0065746635  SOLV      3984            0.0000000000
     12066      3995  TIP3      H2              1.4053396015       20.5550842534      -12.0361246635  SOLV      3984            0.0000000000
     12067      3996  TIP3      OH2             2.2761096015       28.7752742534       -8.2575146635  SOLV      3985            0.0000000000
     12068      3996  TIP3      H1              2.2708696015       29.6546242534       -8.6355846635  SOLV      3985            0.0000000000
     12069      3996  TIP3      H2              1.4225196015       28.6916842534       -7.8325246635  SOLV      3985            0.0000000000
     12070      3997  TIP3      OH2            -1.6028003985       28.4460642534      -17.4755846635  SOLV      3986            0.0000000000
     12071      3997  TIP3      H1             -1.8747103985       28.6751642534      -18.3642946635  SOLV      3986            0.0000000000
     12072      3997  TIP3      H2             -1.5572303985       29.2839442534      -17.0150546635  SOLV      3986            0.0000000000
     12073      3998  TIP3      OH2            12.0221696015       30.0676542534      -10.7627346635  SOLV      3987            0.0000000000
     12074      3998  TIP3      H1             11.0805396015       30.1260442534      -10.6010446635  SOLV      3987            0.0000000000
     12075      3998  TIP3      H2             12.2987796015       30.9737042534      -10.8997646635  SOLV      3987            0.0000000000
     12076      3999  TIP3      OH2            12.3228696015       18.3541842534       -9.3453446635  SOLV      3988            0.0000000000
     12077      3999  TIP3      H1             11.5867896015       18.9648942534       -9.3832146635  SOLV      3988            0.0000000000
     12078      3999  TIP3      H2             13.0062696015       18.7690842534       -9.8717046635  SOLV      3988            0.0000000000
     12079      4000  TIP3      OH2             5.3260096015       16.4409142534      -11.8795446635  SOLV      3989            0.0000000000
     12080      4000  TIP3      H1              5.2084296015       15.4925142534      -11.9337146635  SOLV      3989            0.0000000000
     12081      4000  TIP3      H2              4.4710196015       16.7735242534      -11.6064346635  SOLV      3989            0.0000000000
     12082      4001  TIP3      OH2            10.2742896015       31.8490042534      -14.1375746635  SOLV      3990            0.0000000000
     12083      4001  TIP3      H1             10.6995196015       31.1417942534      -14.6226146635  SOLV      3990            0.0000000000
     12084      4001  TIP3      H2             10.5912896015       32.6502742534      -14.5543546635  SOLV      3990            0.0000000000
     12085      4002  TIP3      OH2            11.4339396015       29.7498542534      -15.6289146635  SOLV      3991            0.0000000000
     12086      4002  TIP3      H1             11.1764196015       29.0598642534      -16.2403246635  SOLV      3991            0.0000000000
     12087      4002  TIP3      H2             11.5050196015       29.3069742534      -14.7833246635  SOLV      3991            0.0000000000
     12088      4003  TIP3      OH2            13.1199596015       28.3165242534       -7.1515646635  SOLV      3992            0.0000000000
     12089      4003  TIP3      H1             13.2595896015       27.7247742534       -7.8908646635  SOLV      3992            0.0000000000
     12090      4003  TIP3      H2             13.2872396015       29.1891142534       -7.5076846635  SOLV      3992            0.0000000000
     12091      4004  TIP3      OH2             7.5924996015       25.2784742534      -17.3789646635  SOLV      3993            0.0000000000
     12092      4004  TIP3      H1              6.8810496015       25.8134442534      -17.7309146635  SOLV      3993            0.0000000000
     12093      4004  TIP3      H2              8.2834596015       25.3336842534      -18.0390746635  SOLV      3993            0.0000000000
     12094      4005  TIP3      OH2             7.6464196015       23.7359042534      -20.3404646635  SOLV      3994            0.0000000000
     12095      4005  TIP3      H1              8.3474096015       23.7585942534      -19.6890646635  SOLV      3994            0.0000000000
     12096      4005  TIP3      H2              7.9487096015       23.1078742534      -20.9965346635  SOLV      3994            0.0000000000
     12097      4006  TIP3      OH2            14.9618896015       24.6563242534       -9.0855246635  SOLV      3995            0.0000000000
     12098      4006  TIP3      H1             14.3092996015       25.3508842534       -8.9964346635  SOLV      3995            0.0000000000
     12099      4006  TIP3      H2             15.4269196015       24.8664142534       -9.8953646635  SOLV      3995            0.0000000000
     12100      4007  TIP3      OH2            10.9982696015       25.4878042534      -16.4273746635  SOLV      3996            0.0000000000
     12101      4007  TIP3      H1             10.2663696015       25.7161742534      -15.8543146635  SOLV      3996            0.0000000000
     12102      4007  TIP3      H2             11.4454896015       24.7740742534      -15.9726246635  SOLV      3996            0.0000000000
     12103      4008  TIP3      OH2            10.8956196015       23.6620642534       -7.3596746635  SOLV      3997            0.0000000000
     12104      4008  TIP3      H1             10.9755296015       24.4255042534       -6.7878246635  SOLV      3997            0.0000000000
     12105      4008  TIP3      H2             10.2943896015       23.9413042534       -8.0501646635  SOLV      3997            0.0000000000
     12106      4009  TIP3      OH2             2.6436396015       26.1184242534      -14.5448746635  SOLV      3998            0.0000000000
     12107      4009  TIP3      H1              2.3131596015       25.7477642534      -15.3631746635  SOLV      3998            0.0000000000
     12108      4009  TIP3      H2              3.2320496015       25.4478242534      -14.1980446635  SOLV      3998            0.0000000000
     12109      4010  TIP3      OH2             4.0103896015       29.5464842534      -11.8636546635  SOLV      3999            0.0000000000
     12110      4010  TIP3      H1              3.9155196015       28.9677942534      -12.6201946635  SOLV      3999            0.0000000000
     12111      4010  TIP3      H2              4.7397496015       29.1750542534      -11.3673746635  SOLV      3999            0.0000000000
     12112      4011  TIP3      OH2             3.0101896015       24.8869842534      -10.9113746635  SOLV      4000            0.0000000000
     12113      4011  TIP3      H1              3.5754396015       25.0084042534      -11.6742546635  SOLV      4000            0.0000000000
     12114      4011  TIP3      H2              3.3290796015       25.5244842534      -10.2725246635  SOLV      4000            0.0000000000
     12115      4012  TIP3      OH2             9.3194096015       30.3901742534      -10.1773246635  SOLV      4001            0.0000000000
     12116      4012  TIP3      H1              9.0790696015       31.0524842534       -9.5294046635  SOLV      4001            0.0000000000
     12117      4012  TIP3      H2              9.1212296015       29.5556942534       -9.7523646635  SOLV      4001            0.0000000000
     12118      4013  TIP3      OH2             3.8902596015       29.2862542534       -6.1941846635  SOLV      4002            0.0000000000
     12119      4013  TIP3      H1              3.5790096015       30.0685742534       -5.7388646635  SOLV      4002            0.0000000000
     12120      4013  TIP3      H2              3.2402796015       29.1331642534       -6.8799846635  SOLV      4002            0.0000000000
     12121      4014  TIP3      OH2             9.8692196015       24.6500942534      -18.7422546635  SOLV      4003            0.0000000000
     12122      4014  TIP3      H1             10.4487696015       24.8001242534      -17.9953646635  SOLV      4003            0.0000000000
     12123      4014  TIP3      H2             10.2832196015       25.1208342534      -19.4656146635  SOLV      4003            0.0000000000
     12124      4015  TIP3      OH2             0.8102496015       25.4843642534       -6.9656146635  SOLV      4004            0.0000000000
     12125      4015  TIP3      H1              0.8805696015       26.1350442534       -6.2671146635  SOLV      4004            0.0000000000
     12126      4015  TIP3      H2             -0.0805303985       25.5871142534       -7.3005246635  SOLV      4004            0.0000000000
     12127      4016  TIP3      OH2             7.5957096015       31.3869442534      -15.3069446635  SOLV      4005            0.0000000000
     12128      4016  TIP3      H1              8.0694696015       31.6825742534      -14.5295246635  SOLV      4005            0.0000000000
     12129      4016  TIP3      H2              7.0326396015       32.1251042534      -15.5399846635  SOLV      4005            0.0000000000
     12130      4017  TIP3      OH2             2.1298496015       31.3577542534       -5.4308046635  SOLV      4006            0.0000000000
     12131      4017  TIP3      H1              2.1373796015       31.2217242534       -6.3782546635  SOLV      4006            0.0000000000
     12132      4017  TIP3      H2              1.2138896015       31.2405642534       -5.1788046635  SOLV      4006            0.0000000000
     12133      4018  TIP3      OH2            13.5680596015       16.4001342534      -18.9292846635  SOLV      4007            0.0000000000
     12134      4018  TIP3      H1             12.6681296015       16.5390342534      -18.6342246635  SOLV      4007            0.0000000000
     12135      4018  TIP3      H2             13.8198996015       17.2315942534      -19.3311146635  SOLV      4007            0.0000000000
     12136      4019  TIP3      OH2             1.6339096015       25.1878542534      -16.9555946635  SOLV      4008            0.0000000000
     12137      4019  TIP3      H1              1.3420396015       25.9560242534      -17.4464646635  SOLV      4008            0.0000000000
     12138      4019  TIP3      H2              0.9594296015       24.5284742534      -17.1184546635  SOLV      4008            0.0000000000
     12139      4020  TIP3      OH2            14.7571996015       30.7663742534      -20.5528946635  SOLV      4009            0.0000000000
     12140      4020  TIP3      H1             14.8305496015       31.7053942534      -20.3823646635  SOLV      4009            0.0000000000
     12141      4020  TIP3      H2             15.6627096015       30.4612342534      -20.6091646635  SOLV      4009            0.0000000000
     12142      4021  TIP3      OH2            -2.2730803985       27.5507742534       -8.1406146635  SOLV      4010            0.0000000000
     12143      4021  TIP3      H1             -2.7742403985       27.5227142534       -8.9556446635  SOLV      4010            0.0000000000
     12144      4021  TIP3      H2             -2.2677103985       26.6450942534       -7.8308846635  SOLV      4010            0.0000000000
     12145      4022  TIP3      OH2            -2.5228103985       30.3311542534      -11.2565946635  SOLV      4011            0.0000000000
     12146      4022  TIP3      H1             -1.5767503985       30.1868542534      -11.2756446635  SOLV      4011            0.0000000000
     12147      4022  TIP3      H2             -2.6351803985       31.1154342534      -10.7194746635  SOLV      4011            0.0000000000
     12148      4023  TIP3      OH2            15.6750396015       30.9971242534       -5.5742246635  SOLV      4012            0.0000000000
     12149      4023  TIP3      H1             15.6257196015       30.0419342534       -5.6114646635  SOLV      4012            0.0000000000
     12150      4023  TIP3      H2             14.8482696015       31.2646542534       -5.1728446635  SOLV      4012            0.0000000000
     12151      4024  TIP3      OH2             6.6534396015       30.5710442534       -6.6980846635  SOLV      4013            0.0000000000
     12152      4024  TIP3      H1              6.7408996015       31.3975042534       -6.2231746635  SOLV      4013            0.0000000000
     12153      4024  TIP3      H2              5.7899496015       30.2414242534       -6.4491546635  SOLV      4013            0.0000000000
     12154      4025  TIP3      OH2             7.0680196015       34.3434142534      -16.8920246635  SOLV      4014            0.0000000000
     12155      4025  TIP3      H1              6.9926196015       34.2221342534      -17.8385046635  SOLV      4014            0.0000000000
     12156      4025  TIP3      H2              7.1008896015       35.2926842534      -16.7735646635  SOLV      4014            0.0000000000
     12157      4026  TIP3      OH2             0.7213996015       33.1321142534      -15.1111246635  SOLV      4015            0.0000000000
     12158      4026  TIP3      H1              0.8734396015       32.7841542534      -14.2324746635  SOLV      4015            0.0000000000
     12159      4026  TIP3      H2             -0.1295603985       32.7758442534      -15.3664046635  SOLV      4015            0.0000000000
     12160      4027  TIP3      OH2            10.1696196015       33.4974342534      -19.8897846635  SOLV      4016            0.0000000000
     12161      4027  TIP3      H1             10.5444596015       32.7530442534      -20.3605246635  SOLV      4016            0.0000000000
     12162      4027  TIP3      H2             10.1739896015       33.2274942534      -18.9714546635  SOLV      4016            0.0000000000
     12163      4028  TIP3      OH2             9.8384296015       33.4231442534      -17.1405646635  SOLV      4017            0.0000000000
     12164      4028  TIP3      H1              8.9034096015       33.5233342534      -16.9618646635  SOLV      4017            0.0000000000
     12165      4028  TIP3      H2             10.1186196015       32.7137442534      -16.5622446635  SOLV      4017            0.0000000000
     12166      4029  TIP3      OH2            12.8270196015       22.4903742534       -5.0940046635  SOLV      4018            0.0000000000
     12167      4029  TIP3      H1             12.4196996015       22.9709342534       -5.8146746635  SOLV      4018            0.0000000000
     12168      4029  TIP3      H2             12.8675896015       21.5849742534       -5.4019246635  SOLV      4018            0.0000000000
     12169      4030  TIP3      OH2            -0.0240303985       28.8743142534       -7.0973346635  SOLV      4019            0.0000000000
     12170      4030  TIP3      H1              0.1920996015       28.5128742534       -6.2377546635  SOLV      4019            0.0000000000
     12171      4030  TIP3      H2             -0.8795603985       28.4996942534       -7.3069846635  SOLV      4019            0.0000000000
     12172      4031  TIP3      OH2             2.5947696015       17.3443642534      -11.1019146635  SOLV      4020            0.0000000000
     12173      4031  TIP3      H1              1.7331396015       17.2571842534      -11.5096246635  SOLV      4020            0.0000000000
     12174      4031  TIP3      H2              2.5723396015       18.2003742534      -10.6741546635  SOLV      4020            0.0000000000
     12175      4032  TIP3      OH2             7.2575496015       17.0664042534       -7.7272146635  SOLV      4021            0.0000000000
     12176      4032  TIP3      H1              7.6778596015       16.6511142534       -6.9741546635  SOLV      4021            0.0000000000
     12177      4032  TIP3      H2              6.3245096015       16.8877342534       -7.6100146635  SOLV      4021            0.0000000000
     12178      4033  TIP3      OH2            10.5840396015       20.8219242534       -6.8737646635  SOLV      4022            0.0000000000
     12179      4033  TIP3      H1             10.0699896015       20.6961442534       -6.0761646635  SOLV      4022            0.0000000000
     12180      4033  TIP3      H2             10.4285096015       21.7342342534       -7.1181446635  SOLV      4022            0.0000000000
     12181      4034  TIP3      OH2            11.3465296015       25.6829242534      -21.1124646635  SOLV      4023            0.0000000000
     12182      4034  TIP3      H1             11.3886096015       25.4603142534      -22.0424646635  SOLV      4023            0.0000000000
     12183      4034  TIP3      H2             12.1957396015       26.0816342534      -20.9224746635  SOLV      4023            0.0000000000
     12184      4035  TIP3      OH2             6.9192796015       19.5587442534      -20.4421346635  SOLV      4024            0.0000000000
     12185      4035  TIP3      H1              6.6657596015       19.5779042534      -19.5193246635  SOLV      4024            0.0000000000
     12186      4035  TIP3      H2              6.6624896015       18.6872842534      -20.7435146635  SOLV      4024            0.0000000000
     12187      4036  TIP3      OH2             2.6857796015       22.3098142534      -10.0068946635  SOLV      4025            0.0000000000
     12188      4036  TIP3      H1              2.0439896015       22.2695442534       -9.2978846635  SOLV      4025            0.0000000000
     12189      4036  TIP3      H2              2.7229796015       23.2362842534      -10.2445946635  SOLV      4025            0.0000000000
     12190      4037  TIP3      OH2             2.6826896015       22.5308242534      -15.0948946635  SOLV      4026            0.0000000000
     12191      4037  TIP3      H1              1.7899796015       22.1904342534      -15.1535146635  SOLV      4026            0.0000000000
     12192      4037  TIP3      H2              3.1333496015       22.1539142534      -15.8505746635  SOLV      4026            0.0000000000
     12193      4038  TIP3      OH2             8.2182396015       22.9468542534      -16.2778146635  SOLV      4027            0.0000000000
     12194      4038  TIP3      H1              7.8092696015       23.7617142534      -16.5693346635  SOLV      4027            0.0000000000
     12195      4038  TIP3      H2              8.9388596015       22.8068642534      -16.8921046635  SOLV      4027            0.0000000000
     12196      4039  TIP3      OH2             7.3203996015       23.1224942534       -4.7897446635  SOLV      4028            0.0000000000
     12197      4039  TIP3      H1              6.7577796015       22.4176542534       -4.4689646635  SOLV      4028            0.0000000000
     12198      4039  TIP3      H2              8.1467396015       23.0016842534       -4.3219846635  SOLV      4028            0.0000000000
     12199      4040  TIP3      OH2             9.2230096015       22.3928942534      -13.4638446635  SOLV      4029            0.0000000000
     12200      4040  TIP3      H1              9.0274596015       22.9985742534      -14.1787846635  SOLV      4029            0.0000000000
     12201      4040  TIP3      H2              9.4042696015       21.5594142534      -13.8982146635  SOLV      4029            0.0000000000
     12202      4041  TIP3      OH2             0.4358296015       22.6301642534       -8.1396946635  SOLV      4030            0.0000000000
     12203      4041  TIP3      H1              0.3977696015       23.0303242534       -7.2709846635  SOLV      4030            0.0000000000
     12204      4041  TIP3      H2             -0.0550603985       21.8134042534       -8.0494046635  SOLV      4030            0.0000000000
     12205      4042  TIP3      OH2             3.8015696015       20.0043942534      -21.3410946635  SOLV      4031            0.0000000000
     12206      4042  TIP3      H1              3.3706396015       19.5594042534      -20.6113546635  SOLV      4031            0.0000000000
     12207      4042  TIP3      H2              3.0834396015       20.3760242534      -21.8533446635  SOLV      4031            0.0000000000
     12208      4043  TIP3      OH2            -2.9560903985       19.7463442534      -14.2892246635  SOLV      4032            0.0000000000
     12209      4043  TIP3      H1             -2.3253203985       19.7175542534      -13.5698346635  SOLV      4032            0.0000000000
     12210      4043  TIP3      H2             -2.5066603985       19.3212142534      -15.0196346635  SOLV      4032            0.0000000000
     12211      4044  TIP3      OH2            -1.6818803985       20.4925442534      -18.8651846635  SOLV      4033            0.0000000000
     12212      4044  TIP3      H1             -1.2077103985       21.0835342534      -19.4500946635  SOLV      4033            0.0000000000
     12213      4044  TIP3      H2             -2.3992403985       21.0228342534      -18.5181746635  SOLV      4033            0.0000000000
     12214      4045  TIP3      OH2             8.4869296015       24.0310242534       -8.7926046635  SOLV      4034            0.0000000000
     12215      4045  TIP3      H1              8.8104096015       23.3999942534       -9.4355546635  SOLV      4034            0.0000000000
     12216      4045  TIP3      H2              8.0468596015       23.4962442534       -8.1318646635  SOLV      4034            0.0000000000
     12217      4046  TIP3      OH2             5.2642196015       19.9585742534      -14.0084846635  SOLV      4035            0.0000000000
     12218      4046  TIP3      H1              4.3533296015       20.0152542534      -13.7198846635  SOLV      4035            0.0000000000
     12219      4046  TIP3      H2              5.7695096015       19.8981242534      -13.1977646635  SOLV      4035            0.0000000000
     12220      4047  TIP3      OH2             0.0925596015       21.5872042534      -15.1817246635  SOLV      4036            0.0000000000
     12221      4047  TIP3      H1             -0.7966403985       21.6867542534      -15.5217646635  SOLV      4036            0.0000000000
     12222      4047  TIP3      H2              0.3890496015       20.7455042534      -15.5279346635  SOLV      4036            0.0000000000
     12223      4048  TIP3      OH2             3.7457396015       21.5874642534      -17.5252646635  SOLV      4037            0.0000000000
     12224      4048  TIP3      H1              4.6772896015       21.7164642534      -17.3469546635  SOLV      4037            0.0000000000
     12225      4048  TIP3      H2              3.5307696015       22.2568942534      -18.1747946635  SOLV      4037            0.0000000000
     12226      4049  TIP3      OH2             9.6694096015       19.1932042534      -10.7443046635  SOLV      4038            0.0000000000
     12227      4049  TIP3      H1              8.9925696015       19.3245142534      -10.0803346635  SOLV      4038            0.0000000000
     12228      4049  TIP3      H2              9.1838996015       19.0381542534      -11.5545346635  SOLV      4038            0.0000000000
     12229      4050  TIP3      OH2             2.4197596015       22.7816842534      -19.9586546635  SOLV      4039            0.0000000000
     12230      4050  TIP3      H1              1.8772696015       22.4020642534      -20.6498946635  SOLV      4039            0.0000000000
     12231      4050  TIP3      H2              3.2532496015       22.9761542534      -20.3872446635  SOLV      4039            0.0000000000
     12232      4051  TIP3      OH2            12.9569196015       34.8647442534       -4.4675446635  SOLV      4040            0.0000000000
     12233      4051  TIP3      H1             13.1567896015       35.2889342534       -5.3020146635  SOLV      4040            0.0000000000
     12234      4051  TIP3      H2             13.6122896015       35.2085642534       -3.8605046635  SOLV      4040            0.0000000000
     12235      4052  TIP3      OH2             0.5548996015       27.3388742534       -4.8594946635  SOLV      4041            0.0000000000
     12236      4052  TIP3      H1              1.2871396015       27.5934642534       -4.2980446635  SOLV      4041            0.0000000000
     12237      4052  TIP3      H2             -0.2252303985       27.5434142534       -4.3439546635  SOLV      4041            0.0000000000
     12238      4053  TIP3      OH2             6.5841896015       22.7458742534      -12.1215246635  SOLV      4042            0.0000000000
     12239      4053  TIP3      H1              7.1485296015       22.1995342534      -12.6685646635  SOLV      4042            0.0000000000
     12240      4053  TIP3      H2              6.4365296015       22.2240642534      -11.3327646635  SOLV      4042            0.0000000000
     12241      4054  TIP3      OH2             1.5861596015       18.8824842534      -15.7030446635  SOLV      4043            0.0000000000
     12242      4054  TIP3      H1              1.2691096015       17.9800142534      -15.7385046635  SOLV      4043            0.0000000000
     12243      4054  TIP3      H2              2.3675696015       18.8842242534      -16.2558846635  SOLV      4043            0.0000000000
     12244      4055  TIP3      OH2             5.2107796015       21.1344842534       -9.7074846635  SOLV      4044            0.0000000000
     12245      4055  TIP3      H1              4.3753096015       21.5884342534       -9.5972446635  SOLV      4044            0.0000000000
     12246      4055  TIP3      H2              5.7348396015       21.4103342534       -8.9554946635  SOLV      4044            0.0000000000
     12247      4056  TIP3      OH2             5.7550396015       27.3472542534      -18.0228446635  SOLV      4045            0.0000000000
     12248      4056  TIP3      H1              5.0101396015       26.8397842534      -18.3450546635  SOLV      4045            0.0000000000
     12249      4056  TIP3      H2              5.6207596015       27.3960542534      -17.0763646635  SOLV      4045            0.0000000000
     12250      4057  TIP3      OH2            12.9049296015       26.4800742534       -9.2360846635  SOLV      4046            0.0000000000
     12251      4057  TIP3      H1             13.5468096015       26.9367042534       -9.7798646635  SOLV      4046            0.0000000000
     12252      4057  TIP3      H2             12.0746196015       26.5933142534       -9.6986746635  SOLV      4046            0.0000000000
     12253      4058  TIP3      OH2             9.6527196015       20.1612442534      -19.8235846635  SOLV      4047            0.0000000000
     12254      4058  TIP3      H1              8.7141396015       20.2728042534      -19.9747046635  SOLV      4047            0.0000000000
     12255      4058  TIP3      H2              9.9499296015       21.0179342534      -19.5170146635  SOLV      4047            0.0000000000
     12256      4059  TIP3      OH2             7.2742496015       27.5315842534       -6.7859346635  SOLV      4048            0.0000000000
     12257      4059  TIP3      H1              6.9288596015       27.1498242534       -5.9789746635  SOLV      4048            0.0000000000
     12258      4059  TIP3      H2              7.0742596015       28.4649442534       -6.7146446635  SOLV      4048            0.0000000000
     12259      4060  TIP3      OH2            10.3710696015       22.0285142534      -18.1628446635  SOLV      4049            0.0000000000
     12260      4060  TIP3      H1             11.2629696015       21.8910142534      -17.8437246635  SOLV      4049            0.0000000000
     12261      4060  TIP3      H2             10.4274296015       22.8191242534      -18.6994946635  SOLV      4049            0.0000000000
     12262      4061  TIP3      OH2             0.8798696015       26.6422542534      -12.2530546635  SOLV      4050            0.0000000000
     12263      4061  TIP3      H1              1.6245896015       26.6398242534      -12.8544046635  SOLV      4050            0.0000000000
     12264      4061  TIP3      H2              0.9575296015       25.8186342534      -11.7715446635  SOLV      4050            0.0000000000
     12265      4062  TIP3      OH2             7.8804496015       28.8056842534      -18.9973846635  SOLV      4051            0.0000000000
     12266      4062  TIP3      H1              7.5852896015       29.6324742534      -18.6159046635  SOLV      4051            0.0000000000
     12267      4062  TIP3      H2              7.1774496015       28.1863742534      -18.8012446635  SOLV      4051            0.0000000000
     12268      4063  TIP3      OH2            -2.1121603985       25.1029442534       -6.9382046635  SOLV      4052            0.0000000000
     12269      4063  TIP3      H1             -1.8893003985       24.6849042534       -6.1064546635  SOLV      4052            0.0000000000
     12270      4063  TIP3      H2             -2.7141503985       24.4904442534       -7.3609246635  SOLV      4052            0.0000000000
     12271      4064  TIP3      OH2             4.9043296015       24.6199342534       -4.7252346635  SOLV      4053            0.0000000000
     12272      4064  TIP3      H1              4.6084096015       24.4542342534       -5.6203246635  SOLV      4053            0.0000000000
     12273      4064  TIP3      H2              5.8358496015       24.3999642534       -4.7358446635  SOLV      4053            0.0000000000
     12274      4065  TIP3      OH2             9.5246096015       29.9931342534       -6.8354346635  SOLV      4054            0.0000000000
     12275      4065  TIP3      H1              8.6240396015       30.1763942534       -7.1030446635  SOLV      4054            0.0000000000
     12276      4065  TIP3      H2              9.5587196015       30.2520642534       -5.9145546635  SOLV      4054            0.0000000000
     12277      4066  TIP3      OH2            15.2559396015       22.2379242534      -18.4681746635  SOLV      4055            0.0000000000
     12278      4066  TIP3      H1             14.7015696015       21.8417242534      -19.1404246635  SOLV      4055            0.0000000000
     12279      4066  TIP3      H2             15.3562996015       23.1484442534      -18.7458446635  SOLV      4055            0.0000000000
     12280      4067  TIP3      OH2            15.2191396015       28.0380942534       -5.6310246635  SOLV      4056            0.0000000000
     12281      4067  TIP3      H1             14.3679896015       28.2764742534       -5.9983846635  SOLV      4056            0.0000000000
     12282      4067  TIP3      H2             15.8094796015       28.0214142534       -6.3843146635  SOLV      4056            0.0000000000
     12283      4068  TIP3      OH2            13.5511096015       31.0239642534      -18.0029646635  SOLV      4057            0.0000000000
     12284      4068  TIP3      H1             13.1782196015       30.1983442534      -17.6939046635  SOLV      4057            0.0000000000
     12285      4068  TIP3      H2             13.8284596015       30.8409042534      -18.9006246635  SOLV      4057            0.0000000000
     12286      4069  TIP3      OH2            10.7114996015       25.8319142534      -10.9817746635  SOLV      4058            0.0000000000
     12287      4069  TIP3      H1              9.7831896015       25.6001042534      -11.0088446635  SOLV      4058            0.0000000000
     12288      4069  TIP3      H2             11.1626096015       25.0548942534      -11.3118946635  SOLV      4058            0.0000000000
     12289      4070  TIP3      OH2             3.2548096015       30.1600742534      -14.8489046635  SOLV      4059            0.0000000000
     12290      4070  TIP3      H1              3.7820296015       30.9335142534      -15.0490246635  SOLV      4059            0.0000000000
     12291      4070  TIP3      H2              2.3746596015       30.3849942534      -15.1505046635  SOLV      4059            0.0000000000
     12292      4071  TIP3      OH2            -0.9904203985       25.0224842534      -20.2616646635  SOLV      4060            0.0000000000
     12293      4071  TIP3      H1             -0.3744303985       25.6492042534      -19.8821846635  SOLV      4060            0.0000000000
     12294      4071  TIP3      H2             -1.8521603985       25.3384642534      -19.9900146635  SOLV      4060            0.0000000000
     12295      4072  TIP3      OH2             4.6820396015       27.8230642534      -15.2724746635  SOLV      4061            0.0000000000
     12296      4072  TIP3      H1              4.4410396015       28.7485042534      -15.2309446635  SOLV      4061            0.0000000000
     12297      4072  TIP3      H2              3.9413996015       27.3641942534      -14.8760846635  SOLV      4061            0.0000000000
     12298      4073  TIP3      OH2             5.1966996015       31.9724242534       -8.9573646635  SOLV      4062            0.0000000000
     12299      4073  TIP3      H1              5.5591696015       32.8269842534       -9.1909246635  SOLV      4062            0.0000000000
     12300      4073  TIP3      H2              5.7282196015       31.6805842534       -8.2167346635  SOLV      4062            0.0000000000
     12301      4074  TIP3      OH2             3.3651196015       32.8448242534      -15.7272546635  SOLV      4063            0.0000000000
     12302      4074  TIP3      H1              2.4151696015       32.9505642534      -15.6759246635  SOLV      4063            0.0000000000
     12303      4074  TIP3      H2              3.7169296015       33.6655642534      -15.3825046635  SOLV      4063            0.0000000000
     12304      4075  TIP3      OH2             8.7407796015       28.0714942534       -9.2568046635  SOLV      4064            0.0000000000
     12305      4075  TIP3      H1              8.3149096015       27.8436642534       -8.4304046635  SOLV      4064            0.0000000000
     12306      4075  TIP3      H2              9.3213596015       27.3326742534       -9.4392746635  SOLV      4064            0.0000000000
     12307      4076  TIP3      OH2            10.9436696015       29.0005442534      -20.1829046635  SOLV      4065            0.0000000000
     12308      4076  TIP3      H1             11.2969796015       28.6205242534      -19.3785546635  SOLV      4065            0.0000000000
     12309      4076  TIP3      H2              9.9950196015       28.9070242534      -20.0959746635  SOLV      4065            0.0000000000
     12310      4077  TIP3      OH2            11.3991996015       32.6234442534       -6.7873246635  SOLV      4066            0.0000000000
     12311      4077  TIP3      H1             10.7975196015       32.0677342534       -7.2826946635  SOLV      4066            0.0000000000
     12312      4077  TIP3      H2             11.6805696015       33.2904242534       -7.4135846635  SOLV      4066            0.0000000000
     12313      4078  TIP3      OH2            15.4471096015       33.4797942534      -19.9818846635  SOLV      4067            0.0000000000
     12314      4078  TIP3      H1             16.1908996015       34.0658442534      -20.1217246635  SOLV      4067            0.0000000000
     12315      4078  TIP3      H2             14.7529196015       34.0483742534      -19.6486446635  SOLV      4067            0.0000000000
     12316      4079  TIP3      OH2            -0.4782103985       19.8562142534       -7.3800646635  SOLV      4068            0.0000000000
     12317      4079  TIP3      H1             -1.3709803985       20.1947542534       -7.4476646635  SOLV      4068            0.0000000000
     12318      4079  TIP3      H2             -0.5769303985       19.0008242534       -6.9619846635  SOLV      4068            0.0000000000
     12319      4080  TIP3      OH2            11.8095996015       27.6727442534      -17.9561146635  SOLV      4069            0.0000000000
     12320      4080  TIP3      H1             11.5323596015       26.9446742534      -17.4000046635  SOLV      4069            0.0000000000
     12321      4080  TIP3      H2             12.7368996015       27.7919442534      -17.7508546635  SOLV      4069            0.0000000000
     12322      4081  TIP3      OH2            -0.8270103985       31.6606542534       -8.9451246635  SOLV      4070            0.0000000000
     12323      4081  TIP3      H1             -0.6099803985       30.7288942534       -8.9761546635  SOLV      4070            0.0000000000
     12324      4081  TIP3      H2             -0.5806603985       31.9351542534       -8.0618446635  SOLV      4070            0.0000000000
     12325      4082  TIP3      OH2             5.0344496015       30.1121542534      -21.7359046635  SOLV      4071            0.0000000000
     12326      4082  TIP3      H1              5.2734296015       29.3639642534      -22.2830146635  SOLV      4071            0.0000000000
     12327      4082  TIP3      H2              4.7655796015       29.7243242534      -20.9031246635  SOLV      4071            0.0000000000
     12328      4083  TIP3      OH2             3.9715096015       29.6825342534      -19.2796446635  SOLV      4072            0.0000000000
     12329      4083  TIP3      H1              4.1183096015       29.1625142534      -18.4895546635  SOLV      4072            0.0000000000
     12330      4083  TIP3      H2              3.9686796015       30.5892942534      -18.9730546635  SOLV      4072            0.0000000000
     12331      4084  TIP3      OH2             0.4246196015       26.9348642534      -18.7691046635  SOLV      4073            0.0000000000
     12332      4084  TIP3      H1             -0.2614503985       27.2871142534      -18.2021346635  SOLV      4073            0.0000000000
     12333      4084  TIP3      H2              0.9474096015       27.6978242534      -19.0156746635  SOLV      4073            0.0000000000
     12334      4085  TIP3      OH2             8.2561296015       19.5972442534       -8.4902046635  SOLV      4074            0.0000000000
     12335      4085  TIP3      H1              8.9549196015       19.6711142534       -7.8402346635  SOLV      4074            0.0000000000
     12336      4085  TIP3      H2              7.8752696015       18.7327442534       -8.3359146635  SOLV      4074            0.0000000000
     12337      4086  TIP3      OH2             9.0406196015       19.2494142534      -17.3929746635  SOLV      4075            0.0000000000
     12338      4086  TIP3      H1              9.2604496015       19.7209542534      -18.1964346635  SOLV      4075            0.0000000000
     12339      4086  TIP3      H2              9.5990196015       19.6436742534      -16.7229146635  SOLV      4075            0.0000000000
     12340      4087  TIP3      OH2             6.7092296015       31.3798942534      -18.5302246635  SOLV      4076            0.0000000000
     12341      4087  TIP3      H1              5.8928396015       31.8768642534      -18.4777946635  SOLV      4076            0.0000000000
     12342      4087  TIP3      H2              7.2388596015       31.8552442534      -19.1703446635  SOLV      4076            0.0000000000
     12343      4088  TIP3      OH2             6.2406096015       20.9772942534      -16.5581346635  SOLV      4077            0.0000000000
     12344      4088  TIP3      H1              7.0528696015       21.4816142534      -16.5119646635  SOLV      4077            0.0000000000
     12345      4088  TIP3      H2              5.9959096015       20.8322642534      -15.6441746635  SOLV      4077            0.0000000000
     12346      4089  TIP3      OH2             7.1242796015       18.0585942534      -15.6200246635  SOLV      4078            0.0000000000
     12347      4089  TIP3      H1              6.7776296015       18.6756542534      -14.9755946635  SOLV      4078            0.0000000000
     12348      4089  TIP3      H2              7.7829696015       18.5591642534      -16.1014746635  SOLV      4078            0.0000000000
     12349      4090  TIP3      OH2             4.0475396015       32.4236142534      -18.5485346635  SOLV      4079            0.0000000000
     12350      4090  TIP3      H1              4.2084096015       33.2233642534      -19.0492746635  SOLV      4079            0.0000000000
     12351      4090  TIP3      H2              3.8503196015       32.7302142534      -17.6634746635  SOLV      4079            0.0000000000
     12352      4091  TIP3      OH2             2.7819796015       19.1215342534      -18.9327746635  SOLV      4080            0.0000000000
     12353      4091  TIP3      H1              2.6984596015       20.0098442534      -18.5861346635  SOLV      4080            0.0000000000
     12354      4091  TIP3      H2              3.6720096015       18.8562042534      -18.7010946635  SOLV      4080            0.0000000000
     12355      4092  TIP3      OH2            12.9808296015       19.8705942534       -6.5385046635  SOLV      4081            0.0000000000
     12356      4092  TIP3      H1             12.0644096015       20.1327642534       -6.6261346635  SOLV      4081            0.0000000000
     12357      4092  TIP3      H2             13.3163296015       19.8674942534       -7.4349746635  SOLV      4081            0.0000000000
     12358      4093  TIP3      OH2            11.5829296015       23.6206942534      -12.4427746635  SOLV      4082            0.0000000000
     12359      4093  TIP3      H1             10.7853696015       23.2057142534      -12.7712746635  SOLV      4082            0.0000000000
     12360      4093  TIP3      H2             12.0280396015       22.9300642534      -11.9517246635  SOLV      4082            0.0000000000
     12361      4094  TIP3      OH2             1.0405096015       29.5487542534      -19.8723246635  SOLV      4083            0.0000000000
     12362      4094  TIP3      H1              1.6326596015       30.2482342534      -19.5960846635  SOLV      4083            0.0000000000
     12363      4094  TIP3      H2              1.4998096015       29.1157042534      -20.5918646635  SOLV      4083            0.0000000000
     12364      4095  TIP3      OH2            -0.6435703985       22.2130542534      -20.7563846635  SOLV      4084            0.0000000000
     12365      4095  TIP3      H1             -0.6883103985       23.1523642534      -20.5776846635  SOLV      4084            0.0000000000
     12366      4095  TIP3      H2             -1.5312503985       21.9775442534      -21.0261746635  SOLV      4084            0.0000000000
     12367      4096  TIP3      OH2            12.6693896015       32.8769442534      -10.8204246635  SOLV      4085            0.0000000000
     12368      4096  TIP3      H1             12.5138196015       33.5553842534      -11.4774946635  SOLV      4085            0.0000000000
     12369      4096  TIP3      H2             13.6020296015       32.9488742534      -10.6173646635  SOLV      4085            0.0000000000
     12370      4097  TIP3      OH2             0.1646296015       16.9947142534      -12.0832846635  SOLV      4086            0.0000000000
     12371      4097  TIP3      H1             -0.0643903985       17.0539642534      -13.0107846635  SOLV      4086            0.0000000000
     12372      4097  TIP3      H2             -0.2780303985       16.2032642534      -11.7768746635  SOLV      4086            0.0000000000
     12373      4098  TIP3      OH2            -0.9050403985       30.9354242534      -15.9227046635  SOLV      4087            0.0000000000
     12374      4098  TIP3      H1             -1.7371803985       31.4076942534      -15.8955646635  SOLV      4087            0.0000000000
     12375      4098  TIP3      H2             -0.3592103985       31.4451842534      -16.5213946635  SOLV      4087            0.0000000000
     12376      4099  TIP3      OH2            -1.6166703985       33.5477942534       -4.5929046635  SOLV      4088            0.0000000000
     12377      4099  TIP3      H1             -1.0764503985       33.3311942534       -3.8329846635  SOLV      4088            0.0000000000
     12378      4099  TIP3      H2             -2.0978703985       32.7423942534       -4.7826546635  SOLV      4088            0.0000000000
     12379      4100  TIP3      OH2             2.9806696015       32.4672342534       -2.9724846635  SOLV      4089            0.0000000000
     12380      4100  TIP3      H1              3.7483896015       32.0083142534       -2.6315646635  SOLV      4089            0.0000000000
     12381      4100  TIP3      H2              2.9592896015       32.2412142534       -3.9023646635  SOLV      4089            0.0000000000
     12382      4101  TIP3      OH2             7.0726296015       31.9752942534      -21.5973046635  SOLV      4090            0.0000000000
     12383      4101  TIP3      H1              6.4287296015       31.3441542534      -21.2759346635  SOLV      4090            0.0000000000
     12384      4101  TIP3      H2              7.8344596015       31.4440942534      -21.8289546635  SOLV      4090            0.0000000000
     12385      4102  TIP3      OH2             9.5575396015       30.8473442534       -4.2433346635  SOLV      4091            0.0000000000
     12386      4102  TIP3      H1              9.2064896015       29.9906442534       -4.0002946635  SOLV      4091            0.0000000000
     12387      4102  TIP3      H2             10.2838596015       30.9900142534       -3.6364346635  SOLV      4091            0.0000000000
     12388      4103  TIP3      OH2            11.6769196015       31.7922842534      -21.3635046635  SOLV      4092            0.0000000000
     12389      4103  TIP3      H1             11.9599596015       30.9978042534      -20.9108146635  SOLV      4092            0.0000000000
     12390      4103  TIP3      H2             12.4167096015       32.0253842534      -21.9243946635  SOLV      4092            0.0000000000
     12391      4104  TIP3      OH2            -1.7097203985       27.3582042534       -3.6384746635  SOLV      4093            0.0000000000
     12392      4104  TIP3      H1             -1.5656703985       26.4562742534       -3.9248046635  SOLV      4093            0.0000000000
     12393      4104  TIP3      H2             -2.4819803985       27.6444142534       -4.1262446635  SOLV      4093            0.0000000000
     12394      4105  TIP3      OH2             2.6316496015       27.7017742534      -21.5060146635  SOLV      4094            0.0000000000
     12395      4105  TIP3      H1              2.6960596015       26.9077342534      -20.9753746635  SOLV      4094            0.0000000000
     12396      4105  TIP3      H2              3.2845696015       27.5830542534      -22.1958146635  SOLV      4094            0.0000000000
     12397      4106  TIP3      OH2             4.9458896015       27.3280142534       -4.2058346635  SOLV      4095            0.0000000000
     12398      4106  TIP3      H1              4.6172696015       27.5988242534       -5.0630946635  SOLV      4095            0.0000000000
     12399      4106  TIP3      H2              5.0977096015       26.3869942534       -4.2933346635  SOLV      4095            0.0000000000
     12400      4107  TIP3      OH2             7.9839896015       28.7489442534      -21.7702146635  SOLV      4096            0.0000000000
     12401      4107  TIP3      H1              7.7153996015       28.9291542534      -20.8693246635  SOLV      4096            0.0000000000
     12402      4107  TIP3      H2              7.7775496015       27.8235642534      -21.9016346635  SOLV      4096            0.0000000000
     12403      4108  TIP3      OH2            10.6804096015       27.2437442534       -6.8226046635  SOLV      4097            0.0000000000
     12404      4108  TIP3      H1             11.4258896015       27.8321142534       -6.9422046635  SOLV      4097            0.0000000000
     12405      4108  TIP3      H2              9.9230896015       27.8257142534       -6.7592946635  SOLV      4097            0.0000000000
     12406      4109  TIP3      OH2            -0.8770703985       24.5585342534       -4.2185446635  SOLV      4098            0.0000000000
     12407      4109  TIP3      H1             -0.4689503985       23.7011942534       -4.3394846635  SOLV      4098            0.0000000000
     12408      4109  TIP3      H2             -1.1373103985       24.5726642534       -3.2975146635  SOLV      4098            0.0000000000
     12409      4110  TIP3      OH2             3.7810296015       25.6743942534      -19.2002146635  SOLV      4099            0.0000000000
     12410      4110  TIP3      H1              3.3212296015       25.1902242534      -18.5143646635  SOLV      4099            0.0000000000
     12411      4110  TIP3      H2              4.0358996015       25.0059342534      -19.8361646635  SOLV      4099            0.0000000000
     12412      4111  TIP3      OH2             3.0699596015       23.5671042534       -6.8442546635  SOLV      4100            0.0000000000
     12413      4111  TIP3      H1              2.4515696015       24.2417642534       -6.5637846635  SOLV      4100            0.0000000000
     12414      4111  TIP3      H2              3.4140796015       23.8884942534       -7.6776346635  SOLV      4100            0.0000000000
     12415      4112  TIP3      OH2             4.8520696015       23.9175742534      -20.9378946635  SOLV      4101            0.0000000000
     12416      4112  TIP3      H1              4.6715696015       23.7626942534      -21.8650646635  SOLV      4101            0.0000000000
     12417      4112  TIP3      H2              5.8021196015       24.0254442534      -20.8931046635  SOLV      4101            0.0000000000
     12418      4113  TIP3      OH2             8.0897796015       26.0386342534       -3.5667746635  SOLV      4102            0.0000000000
     12419      4113  TIP3      H1              9.0428996015       26.1225442534       -3.5941746635  SOLV      4102            0.0000000000
     12420      4113  TIP3      H2              7.9292396015       25.3268142534       -2.9472846635  SOLV      4102            0.0000000000
     12421      4114  TIP3      OH2            14.2418996015       26.2719942534      -21.4920846635  SOLV      4103            0.0000000000
     12422      4114  TIP3      H1             13.9683796015       25.8475442534      -22.3052546635  SOLV      4103            0.0000000000
     12423      4114  TIP3      H2             14.2813096015       27.2034442534      -21.7090446635  SOLV      4103            0.0000000000
     12424      4115  TIP3      OH2             3.8218996015       19.2917642534       -8.2692046635  SOLV      4104            0.0000000000
     12425      4115  TIP3      H1              4.3576496015       19.7434342534       -8.9212746635  SOLV      4104            0.0000000000
     12426      4115  TIP3      H2              2.9698596015       19.1837442534       -8.6917946635  SOLV      4104            0.0000000000
     12427      4116  TIP3      OH2             5.4037396015       24.7313842534       -8.0296846635  SOLV      4105            0.0000000000
     12428      4116  TIP3      H1              6.1542196015       24.5751342534       -8.6029046635  SOLV      4105            0.0000000000
     12429      4116  TIP3      H2              5.0645696015       25.5830442534       -8.3051346635  SOLV      4105            0.0000000000
     12430      4117  TIP3      OH2             9.8193596015       22.5465642534       -3.0011546635  SOLV      4106            0.0000000000
     12431      4117  TIP3      H1             10.0114896015       21.6155042534       -3.1127046635  SOLV      4106            0.0000000000
     12432      4117  TIP3      H2             10.6769896015       22.9715142534       -3.0116146635  SOLV      4106            0.0000000000
     12433      4118  TIP3      OH2            11.1360796015       25.3350842534       -4.9238846635  SOLV      4107            0.0000000000
     12434      4118  TIP3      H1             10.8545796015       26.0445442534       -5.5015046635  SOLV      4107            0.0000000000
     12435      4118  TIP3      H2             12.0785096015       25.2623842534       -5.0747646635  SOLV      4107            0.0000000000
     12436      4119  TIP3      OH2             1.8879596015       22.1205342534       -3.8503846635  SOLV      4108            0.0000000000
     12437      4119  TIP3      H1              1.1208596015       21.5880142534       -4.0606246635  SOLV      4108            0.0000000000
     12438      4119  TIP3      H2              2.5668596015       21.8105742534       -4.4497546635  SOLV      4108            0.0000000000
     12439      4120  TIP3      OH2             4.6274496015       16.7483342534       -7.8378446635  SOLV      4109            0.0000000000
     12440      4120  TIP3      H1              4.5294096015       17.6946542534       -7.9432246635  SOLV      4109            0.0000000000
     12441      4120  TIP3      H2              3.8850696015       16.3757142534       -8.3134946635  SOLV      4109            0.0000000000
     12442      4121  TIP3      OH2             8.6071596015       20.1972242534       -5.1986546635  SOLV      4110            0.0000000000
     12443      4121  TIP3      H1              7.6596996015       20.2291942534       -5.0663246635  SOLV      4110            0.0000000000
     12444      4121  TIP3      H2              8.9198296015       19.5719342534       -4.5448346635  SOLV      4110            0.0000000000
     12445      4122  TIP3      OH2            10.2413096015       18.8313342534       -3.1934646635  SOLV      4111            0.0000000000
     12446      4122  TIP3      H1             10.1444896015       17.8790642534       -3.1992746635  SOLV      4111            0.0000000000
     12447      4122  TIP3      H2              9.9196196015       19.1000142534       -2.3329146635  SOLV      4111            0.0000000000
     12448      4123  TIP3      OH2             0.0682396015       20.0409142534       -4.1459146635  SOLV      4112            0.0000000000
     12449      4123  TIP3      H1              0.2799796015       19.3345242534       -4.7561646635  SOLV      4112            0.0000000000
     12450      4123  TIP3      H2             -0.0430103985       19.6035142534       -3.3017946635  SOLV      4112            0.0000000000
     12451      4124  TIP3      OH2             4.8492596015       16.0420742534       -5.1665646635  SOLV      4113            0.0000000000
     12452      4124  TIP3      H1              5.5610996015       15.4022942534       -5.1806546635  SOLV      4113            0.0000000000
     12453      4124  TIP3      H2              4.7482996015       16.3089042534       -6.0802546635  SOLV      4113            0.0000000000
     12454      4125  TIP3      OH2             5.2030096015       17.7249142534       -3.1129346635  SOLV      4114            0.0000000000
     12455      4125  TIP3      H1              5.0712296015       17.2492942534       -3.9330846635  SOLV      4114            0.0000000000
     12456      4125  TIP3      H2              4.6037496015       18.4692742534       -3.1682246635  SOLV      4114            0.0000000000
     12457      4126  TIP3      OH2             4.7492396015       34.6079442534      -19.9365346635  SOLV      4115            0.0000000000
     12458      4126  TIP3      H1              5.6823096015       34.7658142534      -19.7926946635  SOLV      4115            0.0000000000
     12459      4126  TIP3      H2              4.4851196015       35.2832442534      -20.5613846635  SOLV      4115            0.0000000000
     12460      4127  TIP3      OH2            -1.6822703985       29.2443242534      -20.4537246635  SOLV      4116            0.0000000000
     12461      4127  TIP3      H1             -0.7683503985       29.3232142534      -20.1803346635  SOLV      4116            0.0000000000
     12462      4127  TIP3      H2             -1.6749603985       28.5572842534      -21.1201646635  SOLV      4116            0.0000000000
     12463      4128  TIP3      OH2            -3.0332103985       34.6371742534      -15.3763346635  SOLV      4117            0.0000000000
     12464      4128  TIP3      H1             -3.6805003985       34.1753442534      -15.9092146635  SOLV      4117            0.0000000000
     12465      4128  TIP3      H2             -2.6787503985       33.9655042534      -14.7937146635  SOLV      4117            0.0000000000
     12466      4129  TIP3      OH2            -2.1632903985       32.7178742534      -13.5717146635  SOLV      4118            0.0000000000
     12467      4129  TIP3      H1             -2.4976103985       31.8376042534      -13.3996946635  SOLV      4118            0.0000000000
     12468      4129  TIP3      H2             -1.9410503985       33.0633742534      -12.7071546635  SOLV      4118            0.0000000000
     12469      4130  TIP3      OH2            15.3851896015       33.5275142534      -10.5912346635  SOLV      4119            0.0000000000
     12470      4130  TIP3      H1             15.3638596015       33.7123542534       -9.6522946635  SOLV      4119            0.0000000000
     12471      4130  TIP3      H2             16.0758096015       34.0959142534      -10.9320946635  SOLV      4119            0.0000000000
     12472      4131  TIP3      OH2            14.9484796015       33.0946242534       -7.6693246635  SOLV      4120            0.0000000000
     12473      4131  TIP3      H1             14.4613496015       32.3590342534       -8.0405846635  SOLV      4120            0.0000000000
     12474      4131  TIP3      H2             15.4977496015       32.7010142534       -6.9913846635  SOLV      4120            0.0000000000
     12475      4132  TIP3      OH2            13.3992096015       28.8844342534       -3.0312946635  SOLV      4121            0.0000000000
     12476      4132  TIP3      H1             12.5333196015       28.7794042534       -2.6370646635  SOLV      4121            0.0000000000
     12477      4132  TIP3      H2             13.7757996015       29.6427642534       -2.5848246635  SOLV      4121            0.0000000000
     12478      4133  TIP3      OH2            14.7001796015       27.1408042534      -17.5170446635  SOLV      4122            0.0000000000
     12479      4133  TIP3      H1             15.5503196015       27.5618942534      -17.3898846635  SOLV      4122            0.0000000000
     12480      4133  TIP3      H2             14.7056896015       26.4008142534      -16.9099046635  SOLV      4122            0.0000000000
     12481      4134  TIP3      OH2            15.0947396015       25.1945442534      -15.6934746635  SOLV      4123            0.0000000000
     12482      4134  TIP3      H1             14.3681996015       24.7148042534      -15.2957146635  SOLV      4123            0.0000000000
     12483      4134  TIP3      H2             15.6760696015       25.4000142534      -14.9613146635  SOLV      4123            0.0000000000
     12484      4135  TIP3      OH2            14.8538596015       27.9792942534      -10.7457146635  SOLV      4124            0.0000000000
     12485      4135  TIP3      H1             15.6872796015       27.6012942534      -11.0263546635  SOLV      4124            0.0000000000
     12486      4135  TIP3      H2             14.9658896015       28.9224142534      -10.8648046635  SOLV      4124            0.0000000000
     12487      4136  TIP3      OH2            13.3400896015       30.8570442534       -8.4388746635  SOLV      4125            0.0000000000
     12488      4136  TIP3      H1             12.6926196015       31.1821942534       -7.8133546635  SOLV      4125            0.0000000000
     12489      4136  TIP3      H2             12.8224896015       30.4168142534       -9.1130446635  SOLV      4125            0.0000000000
     12490      4137  TIP3      OH2            15.3630496015       25.0953942534      -19.3023446635  SOLV      4126            0.0000000000
     12491      4137  TIP3      H1             14.8411596015       25.4518042534      -20.0212546635  SOLV      4126            0.0000000000
     12492      4137  TIP3      H2             15.3299696015       25.7701742534      -18.6242546635  SOLV      4126            0.0000000000
     12493      4138  TIP3      OH2            13.7119496015       22.3349542534      -20.7516346635  SOLV      4127            0.0000000000
     12494      4138  TIP3      H1             13.8083896015       23.0016542534      -21.4316646635  SOLV      4127            0.0000000000
     12495      4138  TIP3      H2             13.5719096015       21.5195842534      -21.2330846635  SOLV      4127            0.0000000000
     12496      4139  TIP3      OH2            12.8814196015       23.7151942534      -15.1306046635  SOLV      4128            0.0000000000
     12497      4139  TIP3      H1             12.7312996015       22.7700542534      -15.1508246635  SOLV      4128            0.0000000000
     12498      4139  TIP3      H2             12.5278696015       23.9963342534      -14.2866946635  SOLV      4128            0.0000000000
     12499      4140  TIP3      OH2            -2.0833403985       25.7934142534      -11.1202246635  SOLV      4129            0.0000000000
     12500      4140  TIP3      H1             -1.8990503985       25.7115842534      -12.0559346635  SOLV      4129            0.0000000000
     12501      4140  TIP3      H2             -1.2340503985       25.6691142534      -10.6965846635  SOLV      4129            0.0000000000
     12502      4141  TIP3      OH2            13.7377096015       25.6855242534       -5.4917746635  SOLV      4130            0.0000000000
     12503      4141  TIP3      H1             14.3204396015       24.9507542534       -5.3000546635  SOLV      4130            0.0000000000
     12504      4141  TIP3      H2             14.3016396015       26.4575542534       -5.4451946635  SOLV      4130            0.0000000000
     12505      4142  TIP3      OH2            15.2344196015       23.5881042534       -4.8072346635  SOLV      4131            0.0000000000
     12506      4142  TIP3      H1             14.3710896015       23.2093142534       -4.9727646635  SOLV      4131            0.0000000000
     12507      4142  TIP3      H2             15.8387896015       22.8495842534       -4.8816546635  SOLV      4131            0.0000000000
     12508      4143  TIP3      OH2            12.9593296015       19.7429342534      -21.6340846635  SOLV      4132            0.0000000000
     12509      4143  TIP3      H1             13.5699096015       19.3716142534      -20.9972646635  SOLV      4132            0.0000000000
     12510      4143  TIP3      H2             12.1224796015       19.3216242534      -21.4380846635  SOLV      4132            0.0000000000
     12511      4144  TIP3      OH2            12.5918996015       21.2977742534      -16.6680946635  SOLV      4133            0.0000000000
     12512      4144  TIP3      H1             12.8716096015       20.3908142534      -16.5439246635  SOLV      4133            0.0000000000
     12513      4144  TIP3      H2             13.3510696015       21.7319242534      -17.0571746635  SOLV      4133            0.0000000000
     12514      4145  TIP3      OH2            13.2037296015       21.8795142534      -11.2322046635  SOLV      4134            0.0000000000
     12515      4145  TIP3      H1             14.1365296015       22.0915042534      -11.2666046635  SOLV      4134            0.0000000000
     12516      4145  TIP3      H2             12.9684796015       21.9807242534      -10.3099046635  SOLV      4134            0.0000000000
     12517      4146  TIP3      OH2            13.2329196015       22.6160442534       -8.4562646635  SOLV      4135            0.0000000000
     12518      4146  TIP3      H1             12.3900496015       22.8840842534       -8.0902846635  SOLV      4135            0.0000000000
     12519      4146  TIP3      H2             13.6753496015       23.4382342534       -8.6671546635  SOLV      4135            0.0000000000
     12520      4147  TIP3      OH2            -2.4858603985       21.0639142534       -4.9793446635  SOLV      4136            0.0000000000
     12521      4147  TIP3      H1             -1.5663703985       20.9417442534       -4.7430346635  SOLV      4136            0.0000000000
     12522      4147  TIP3      H2             -2.9354103985       20.3138842534       -4.5899946635  SOLV      4136            0.0000000000
     12523      4148  TIP3      OH2            15.5160796015       16.5960642534       -3.1027646635  SOLV      4137            0.0000000000
     12524      4148  TIP3      H1             15.8657796015       15.9424142534       -3.7082946635  SOLV      4137            0.0000000000
     12525      4148  TIP3      H2             15.6630296015       17.4334742534       -3.5425046635  SOLV      4137            0.0000000000
     12526      4149  TIP3      OH2            13.2053796015       18.5607042534      -16.6198946635  SOLV      4138            0.0000000000
     12527      4149  TIP3      H1             13.3878796015       18.1118542534      -15.7943946635  SOLV      4138            0.0000000000
     12528      4149  TIP3      H2             12.6056696015       17.9761442534      -17.0834346635  SOLV      4138            0.0000000000
     12529      4150  TIP3      OH2            -1.2646103985       19.3760742534      -12.0880546635  SOLV      4139            0.0000000000
     12530      4150  TIP3      H1             -0.8194503985       18.5843242534      -11.7860846635  SOLV      4139            0.0000000000
     12531      4150  TIP3      H2             -0.7983103985       20.0925942534      -11.6574946635  SOLV      4139            0.0000000000
     12532      4151  TIP3      OH2            -2.9605803985       22.3753742534      -11.0190346635  SOLV      4140            0.0000000000
     12533      4151  TIP3      H1             -2.4686003985       22.1544242534      -11.8098346635  SOLV      4140            0.0000000000
     12534      4151  TIP3      H2             -2.5984903985       23.2157142534      -10.7380846635  SOLV      4140            0.0000000000
     12535      4152  TIP3      OH2            15.0357996015       18.7055242534       -4.7536346635  SOLV      4141            0.0000000000
     12536      4152  TIP3      H1             14.1183696015       18.9762342534       -4.7892846635  SOLV      4141            0.0000000000
     12537      4152  TIP3      H2             15.1587396015       18.1703642534       -5.5376646635  SOLV      4141            0.0000000000
     12538      4153  TIP3      OH2            15.0719996015       18.6285142534      -20.0918646635  SOLV      4142            0.0000000000
     12539      4153  TIP3      H1             15.4842596015       17.9070842534      -20.5670646635  SOLV      4142            0.0000000000
     12540      4153  TIP3      H2             15.7536496015       19.2979742534      -20.0334346635  SOLV      4142            0.0000000000
     12541      4154  TIP3      OH2            -2.6469303985       18.6332842534      -16.9647946635  SOLV      4143            0.0000000000
     12542      4154  TIP3      H1             -3.5720903985       18.8419442534      -17.0942446635  SOLV      4143            0.0000000000
     12543      4154  TIP3      H2             -2.1929403985       19.1173642534      -17.6545646635  SOLV      4143            0.0000000000
     12544      4155  TIP3      OH2            12.1237896015       33.6174542534      -15.0190546635  SOLV      4144            0.0000000000
     12545      4155  TIP3      H1             12.7760796015       33.2696642534      -15.6271446635  SOLV      4144            0.0000000000
     12546      4155  TIP3      H2             12.6341696015       34.1057742534      -14.3730846635  SOLV      4144            0.0000000000
     12547      4156  TIP3      OH2            -2.6833903985       17.3711842534       -8.6205446635  SOLV      4145            0.0000000000
     12548      4156  TIP3      H1             -3.3483403985       17.1252142534       -7.9774546635  SOLV      4145            0.0000000000
     12549      4156  TIP3      H2             -3.1262603985       17.9932242534       -9.1977446635  SOLV      4145            0.0000000000
     12550      4157  TIP3      OH2            -0.4914603985       30.5465942534       -4.4759646635  SOLV      4146            0.0000000000
     12551      4157  TIP3      H1             -1.3122103985       30.7212442534       -4.9364946635  SOLV      4146            0.0000000000
     12552      4157  TIP3      H2             -0.7436803985       30.4730642534       -3.5555246635  SOLV      4146            0.0000000000
     12553      4158  TIP3      OH2             2.4628296015       31.5207142534       -8.2175646635  SOLV      4147            0.0000000000
     12554      4158  TIP3      H1              2.0379396015       32.3305642534       -8.5001046635  SOLV      4147            0.0000000000
     12555      4158  TIP3      H2              3.3671096015       31.6061242534       -8.5195846635  SOLV      4147            0.0000000000
     12556      4159  TIP3      OH2             6.7739696015       32.9197142534       -5.2581946635  SOLV      4148            0.0000000000
     12557      4159  TIP3      H1              6.9587196015       32.5863242534       -4.3801646635  SOLV      4148            0.0000000000
     12558      4159  TIP3      H2              7.6204196015       33.2295742534       -5.5802746635  SOLV      4148            0.0000000000
     12559      4160  TIP3      OH2             9.1190096015       34.2056042534       -6.0140546635  SOLV      4149            0.0000000000
     12560      4160  TIP3      H1              9.7958996015       33.5728342534       -6.2541346635  SOLV      4149            0.0000000000
     12561      4160  TIP3      H2              9.4408896015       34.6066542534       -5.2067246635  SOLV      4149            0.0000000000
     12562      4161  TIP3      OH2            14.0363896015       16.7951542534       -6.9345546635  SOLV      4150            0.0000000000
     12563      4161  TIP3      H1             13.2237396015       17.1201842534       -7.3220846635  SOLV      4150            0.0000000000
     12564      4161  TIP3      H2             14.2692396015       16.0350042534       -7.4676446635  SOLV      4150            0.0000000000
     12565      4162  TIP3      OH2            -0.1355003985       34.7771042534       -8.1700346635  SOLV      4151            0.0000000000
     12566      4162  TIP3      H1             -0.8558603985       35.2172042534       -8.6212646635  SOLV      4151            0.0000000000
     12567      4162  TIP3      H2             -0.5011003985       34.5265742534       -7.3216346635  SOLV      4151            0.0000000000
     12568      4163  TIP3      OH2             2.3317596015       34.3774942534       -9.1403146635  SOLV      4152            0.0000000000
     12569      4163  TIP3      H1              1.4669796015       34.4493442534       -8.7363046635  SOLV      4152            0.0000000000
     12570      4163  TIP3      H2              2.2766596015       34.9242242534       -9.9240646635  SOLV      4152            0.0000000000
     12571      4164  TIP3      OH2             7.0423196015       34.2653842534       -9.9647146635  SOLV      4153            0.0000000000
     12572      4164  TIP3      H1              6.5857196015       34.7943542534      -10.6188746635  SOLV      4153            0.0000000000
     12573      4164  TIP3      H2              7.2051196015       34.8685242534       -9.2394846635  SOLV      4153            0.0000000000
     12574      4165  TIP3      OH2             9.3699496015       33.1433442534       -9.0196846635  SOLV      4154            0.0000000000
     12575      4165  TIP3      H1              8.4653196015       33.3083642534       -9.2854746635  SOLV      4154            0.0000000000
     12576      4165  TIP3      H2              9.7988096015       33.9965642534       -9.0853446635  SOLV      4154            0.0000000000
     12577      4166  TIP3      OH2            11.9741396015       34.7132542534       -8.7249046635  SOLV      4155            0.0000000000
     12578      4166  TIP3      H1             11.7923396015       35.6291442534       -8.9354146635  SOLV      4155            0.0000000000
     12579      4166  TIP3      H2             12.1509196015       34.3029642534       -9.5714446635  SOLV      4155            0.0000000000
     12580      4167  TIP3      OH2            -0.7206903985       33.4003542534      -11.2598546635  SOLV      4156            0.0000000000
     12581      4167  TIP3      H1             -0.7390903985       32.9748642534      -10.4026246635  SOLV      4156            0.0000000000
     12582      4167  TIP3      H2              0.0840996015       33.0818542534      -11.6686346635  SOLV      4156            0.0000000000
     12583      4168  TIP3      OH2             1.4206196015       32.1102242534      -12.6048646635  SOLV      4157            0.0000000000
     12584      4168  TIP3      H1              1.2016896015       31.1939642534      -12.4352646635  SOLV      4157            0.0000000000
     12585      4168  TIP3      H2              2.2448396015       32.2502642534      -12.1387246635  SOLV      4157            0.0000000000
     12586      4169  TIP3      OH2             3.9578696015       32.5801542534      -11.7560646635  SOLV      4158            0.0000000000
     12587      4169  TIP3      H1              4.1704396015       31.6920542534      -12.0429746635  SOLV      4158            0.0000000000
     12588      4169  TIP3      H2              4.0223796015       32.5459242534      -10.8016646635  SOLV      4158            0.0000000000
     12589      4170  TIP3      OH2             7.4662396015       18.2442142534      -12.6117346635  SOLV      4159            0.0000000000
     12590      4170  TIP3      H1              6.7919196015       17.6147742534      -12.3561546635  SOLV      4159            0.0000000000
     12591      4170  TIP3      H2              8.0301596015       17.7601042534      -13.2149446635  SOLV      4159            0.0000000000
     12592      4171  TIP3      OH2            12.6089596015       16.3516142534      -12.4990246635  SOLV      4160            0.0000000000
     12593      4171  TIP3      H1             13.2127196015       16.8991542534      -13.0009246635  SOLV      4160            0.0000000000
     12594      4171  TIP3      H2             11.7391596015       16.6706542534      -12.7396146635  SOLV      4160            0.0000000000
     12595      4172  TIP3      OH2            14.3359996015       17.4904842534      -14.1659346635  SOLV      4161            0.0000000000
     12596      4172  TIP3      H1             14.9477496015       16.9760542534      -14.6925746635  SOLV      4161            0.0000000000
     12597      4172  TIP3      H2             14.7183396015       18.3676942534      -14.1424946635  SOLV      4161            0.0000000000
     12598      4173  TIP3      OH2            -0.2070103985       16.8782442534      -14.7897446635  SOLV      4162            0.0000000000
     12599      4173  TIP3      H1             -0.9840303985       16.6437342534      -15.2971546635  SOLV      4162            0.0000000000
     12600      4173  TIP3      H2              0.3233496015       16.0814542534      -14.7809446635  SOLV      4162            0.0000000000
     12601      4174  TIP3      OH2            -1.3706703985       16.6760542534      -18.9861346635  SOLV      4163            0.0000000000
     12602      4174  TIP3      H1             -0.9316003985       17.2871042534      -19.5777846635  SOLV      4163            0.0000000000
     12603      4174  TIP3      H2             -2.0044303985       17.2144642534      -18.5121346635  SOLV      4163            0.0000000000
     12604      4175  TIP3      OH2             4.3722496015       16.8049542534      -14.9764346635  SOLV      4164            0.0000000000
     12605      4175  TIP3      H1              5.2465896015       17.1933842534      -15.0060046635  SOLV      4164            0.0000000000
     12606      4175  TIP3      H2              4.2363296015       16.5897342534      -14.0537146635  SOLV      4164            0.0000000000
     12607      4176  TIP3      OH2             9.9290896015       16.8349342534      -13.3272646635  SOLV      4165            0.0000000000
     12608      4176  TIP3      H1             10.0052496015       16.9300942534      -14.2766646635  SOLV      4165            0.0000000000
     12609      4176  TIP3      H2              9.6540096015       15.9272242534      -13.1983546635  SOLV      4165            0.0000000000
     12610      4177  TIP3      OH2            11.2823496015       16.8607142534      -17.6347646635  SOLV      4166            0.0000000000
     12611      4177  TIP3      H1             10.5794596015       17.4756342534      -17.8446246635  SOLV      4166            0.0000000000
     12612      4177  TIP3      H2             10.8374896015       16.0233842534      -17.5036746635  SOLV      4166            0.0000000000
     12613      4178  TIP3      OH2            -1.4697203985       32.6242742534      -18.0886246635  SOLV      4167            0.0000000000
     12614      4178  TIP3      H1             -2.1547303985       32.5861642534      -18.7561146635  SOLV      4167            0.0000000000
     12615      4178  TIP3      H2             -1.4660003985       33.5370342534      -17.8004146635  SOLV      4167            0.0000000000
     12616      4179  TIP3      OH2             0.4902396015       18.5922042534      -20.5437246635  SOLV      4168            0.0000000000
     12617      4179  TIP3      H1              0.9815796015       17.9624442534      -21.0711746635  SOLV      4168            0.0000000000
     12618      4179  TIP3      H2              1.1138696015       18.8881442534      -19.8806046635  SOLV      4168            0.0000000000
     12619      4180  TIP3      OH2             5.5162496015       18.8853542534      -18.0866746635  SOLV      4169            0.0000000000
     12620      4180  TIP3      H1              5.6943796015       18.2386742534      -17.4038146635  SOLV      4169            0.0000000000
     12621      4180  TIP3      H2              5.4628696015       19.7191242534      -17.6195646635  SOLV      4169            0.0000000000
     12622      4181  TIP3      OH2             7.3946296015       33.8337642534      -19.6910046635  SOLV      4170            0.0000000000
     12623      4181  TIP3      H1              8.2606496015       34.2005042534      -19.8691846635  SOLV      4170            0.0000000000
     12624      4181  TIP3      H2              7.1479096015       33.3945642534      -20.5049246635  SOLV      4170            0.0000000000
     12625      4182  TIP3      OH2            14.1035896015       33.3967942534      -17.0118946635  SOLV      4171            0.0000000000
     12626      4182  TIP3      H1             13.9092996015       32.6490042534      -17.5769346635  SOLV      4171            0.0000000000
     12627      4182  TIP3      H2             14.0645996015       34.1548042534      -17.5951046635  SOLV      4171            0.0000000000
     12628      4183  TIP3      OH2            -0.2492103985       17.3924342534       -5.2721246635  SOLV      4172            0.0000000000
     12629      4183  TIP3      H1             -0.6153903985       16.6266942534       -4.8296546635  SOLV      4172            0.0000000000
     12630      4183  TIP3      H2              0.6636396015       17.4214542534       -4.9856146635  SOLV      4172            0.0000000000
     12631      4184  TIP3      OH2             1.7238696015       16.7428742534       -3.7364146635  SOLV      4173            0.0000000000
     12632      4184  TIP3      H1              2.6222296015       16.4688942534       -3.9210746635  SOLV      4173            0.0000000000
     12633      4184  TIP3      H2              1.3371796015       16.0004742534       -3.2721546635  SOLV      4173            0.0000000000
     12634      4185  TIP3      OH2             0.3483996015       33.5443542534      -21.0634146635  SOLV      4174            0.0000000000
     12635      4185  TIP3      H1              0.0808596015       33.8306442534      -20.1901046635  SOLV      4174            0.0000000000
     12636      4185  TIP3      H2              1.1196596015       32.9982742534      -20.9111646635  SOLV      4174            0.0000000000
     12637      4186  TIP3      OH2            10.1450996015       16.0754042534       -3.5541346635  SOLV      4175            0.0000000000
     12638      4186  TIP3      H1             10.2218196015       15.6494742534       -2.7003646635  SOLV      4175            0.0000000000
     12639      4186  TIP3      H2             11.0387596015       16.0888742534       -3.8967846635  SOLV      4175            0.0000000000
     12640      4187  TIP3      OH2            13.3212096015       32.1480342534       -4.8617146635  SOLV      4176            0.0000000000
     12641      4187  TIP3      H1             12.5393996015       31.9618342534       -5.3816546635  SOLV      4176            0.0000000000
     12642      4187  TIP3      H2             13.2491996015       33.0774642534       -4.6444646635  SOLV      4176            0.0000000000
     12643      4188  TIP3      OH2            27.7272496015       26.0344742534      -14.8309946635  SOLV      4177            0.0000000000
     12644      4188  TIP3      H1             27.8163596015       26.9782942534      -14.9632846635  SOLV      4177            0.0000000000
     12645      4188  TIP3      H2             27.0890096015       25.7591142534      -15.4890546635  SOLV      4177            0.0000000000
     12646      4189  TIP3      OH2            26.6603796015       25.2895442534      -11.4121746635  SOLV      4178            0.0000000000
     12647      4189  TIP3      H1             26.6221296015       24.6431742534      -10.7072146635  SOLV      4178            0.0000000000
     12648      4189  TIP3      H2             26.3380296015       24.8229842534      -12.1833046635  SOLV      4178            0.0000000000
     12649      4190  TIP3      OH2            19.0288796015       24.9037542534       -9.8191846635  SOLV      4179            0.0000000000
     12650      4190  TIP3      H1             19.0700896015       24.2780842534       -9.0959446635  SOLV      4179            0.0000000000
     12651      4190  TIP3      H2             19.7316496015       25.5276142534       -9.6371446635  SOLV      4179            0.0000000000
     12652      4191  TIP3      OH2            30.3663996015       28.2285842534      -13.1106646635  SOLV      4180            0.0000000000
     12653      4191  TIP3      H1             29.9256696015       27.5081842534      -12.6601046635  SOLV      4180            0.0000000000
     12654      4191  TIP3      H2             30.3533696015       28.9493042534      -12.4808946635  SOLV      4180            0.0000000000
     12655      4192  TIP3      OH2            19.9521896015       29.3536442534      -11.2842746635  SOLV      4181            0.0000000000
     12656      4192  TIP3      H1             19.5827096015       28.5516942534      -11.6538446635  SOLV      4181            0.0000000000
     12657      4192  TIP3      H2             20.8932996015       29.1851342534      -11.2379346635  SOLV      4181            0.0000000000
     12658      4193  TIP3      OH2            16.5622396015       23.0139042534      -15.8913946635  SOLV      4182            0.0000000000
     12659      4193  TIP3      H1             16.1145796015       23.8597742534      -15.9097446635  SOLV      4182            0.0000000000
     12660      4193  TIP3      H2             16.0013596015       22.4343242534      -16.4068846635  SOLV      4182            0.0000000000
     12661      4194  TIP3      OH2            17.2728496015       25.1758642534      -13.7655946635  SOLV      4183            0.0000000000
     12662      4194  TIP3      H1             17.4861996015       24.4060242534      -13.2382946635  SOLV      4183            0.0000000000
     12663      4194  TIP3      H2             18.0106096015       25.2655342534      -14.3688346635  SOLV      4183            0.0000000000
     12664      4195  TIP3      OH2            27.4779496015       33.3327542534      -12.8986246635  SOLV      4184            0.0000000000
     12665      4195  TIP3      H1             28.0975896015       32.6562242534      -13.1717046635  SOLV      4184            0.0000000000
     12666      4195  TIP3      H2             27.2696896015       33.1148342534      -11.9901346635  SOLV      4184            0.0000000000
     12667      4196  TIP3      OH2            25.0498196015       27.7216842534      -11.0060746635  SOLV      4185            0.0000000000
     12668      4196  TIP3      H1             25.3536096015       27.0358242534      -11.6006646635  SOLV      4185            0.0000000000
     12669      4196  TIP3      H2             25.7712196015       27.8405542534      -10.3882746635  SOLV      4185            0.0000000000
     12670      4197  TIP3      OH2            33.7127996015       19.3232142534      -10.1454546635  SOLV      4186            0.0000000000
     12671      4197  TIP3      H1             33.7620196015       19.9333342534       -9.4095446635  SOLV      4186            0.0000000000
     12672      4197  TIP3      H2             34.1383096015       19.7843042534      -10.8683446635  SOLV      4186            0.0000000000
     12673      4198  TIP3      OH2            28.1905196015       22.1159242534      -10.6785946635  SOLV      4187            0.0000000000
     12674      4198  TIP3      H1             28.3331096015       21.1696242534      -10.6584346635  SOLV      4187            0.0000000000
     12675      4198  TIP3      H2             28.0844196015       22.3229042534      -11.6071046635  SOLV      4187            0.0000000000
     12676      4199  TIP3      OH2            21.3453496015       20.2175642534      -13.4061146635  SOLV      4188            0.0000000000
     12677      4199  TIP3      H1             21.3884596015       21.0774142534      -13.8244846635  SOLV      4188            0.0000000000
     12678      4199  TIP3      H2             20.8877596015       19.6650342534      -14.0397946635  SOLV      4188            0.0000000000
     12679      4200  TIP3      OH2            29.0676196015       20.3481242534      -15.0052846635  SOLV      4189            0.0000000000
     12680      4200  TIP3      H1             29.7140496015       20.0194442534      -14.3805246635  SOLV      4189            0.0000000000
     12681      4200  TIP3      H2             29.5775596015       20.8660242534      -15.6281446635  SOLV      4189            0.0000000000
     12682      4201  TIP3      OH2            17.9654996015       22.6141442534      -12.6439746635  SOLV      4190            0.0000000000
     12683      4201  TIP3      H1             18.6191596015       22.0643142534      -12.2119646635  SOLV      4190            0.0000000000
     12684      4201  TIP3      H2             17.9894296015       22.3400442534      -13.5607746635  SOLV      4190            0.0000000000
     12685      4202  TIP3      OH2            23.1219496015       24.1642742534      -13.4288246635  SOLV      4191            0.0000000000
     12686      4202  TIP3      H1             23.7380496015       23.6378142534      -12.9194246635  SOLV      4191            0.0000000000
     12687      4202  TIP3      H2             22.5358296015       23.5241442534      -13.8324646635  SOLV      4191            0.0000000000
     12688      4203  TIP3      OH2            34.1042596015       20.8011342534       -7.9094746635  SOLV      4192            0.0000000000
     12689      4203  TIP3      H1             33.4157196015       21.4592042534       -8.0048146635  SOLV      4192            0.0000000000
     12690      4203  TIP3      H2             34.1197196015       20.6039242534       -6.9729346635  SOLV      4192            0.0000000000
     12691      4204  TIP3      OH2            20.1555396015       19.1354042534       -9.3320346635  SOLV      4193            0.0000000000
     12692      4204  TIP3      H1             19.9367096015       19.6654642534      -10.0984346635  SOLV      4193            0.0000000000
     12693      4204  TIP3      H2             19.4876296015       19.3619542534       -8.6848946635  SOLV      4193            0.0000000000
     12694      4205  TIP3      OH2            27.5245196015       28.6355142534      -15.7881246635  SOLV      4194            0.0000000000
     12695      4205  TIP3      H1             27.2290296015       28.3127442534      -16.6394346635  SOLV      4194            0.0000000000
     12696      4205  TIP3      H2             27.2002996015       29.5351842534      -15.7468646635  SOLV      4194            0.0000000000
     12697      4206  TIP3      OH2            22.7246796015       26.8109742534       -9.0446646635  SOLV      4195            0.0000000000
     12698      4206  TIP3      H1             21.9845896015       27.4091242534       -8.9411446635  SOLV      4195            0.0000000000
     12699      4206  TIP3      H2             23.4386296015       27.3649342534       -9.3603046635  SOLV      4195            0.0000000000
     12700      4207  TIP3      OH2            30.8314596015       19.6390542534      -13.0246946635  SOLV      4196            0.0000000000
     12701      4207  TIP3      H1             30.6162596015       18.8733942534      -12.4920946635  SOLV      4196            0.0000000000
     12702      4207  TIP3      H2             31.4871996015       20.1115142534      -12.5118446635  SOLV      4196            0.0000000000
     12703      4208  TIP3      OH2            19.7492696015       21.0275842534      -11.3798146635  SOLV      4197            0.0000000000
     12704      4208  TIP3      H1             20.3628996015       21.6603442534      -11.0065746635  SOLV      4197            0.0000000000
     12705      4208  TIP3      H2             20.2613396015       20.5550842534      -12.0361246635  SOLV      4197            0.0000000000
     12706      4209  TIP3      OH2            21.1321096015       28.7752742534       -8.2575146635  SOLV      4198            0.0000000000
     12707      4209  TIP3      H1             21.1268696015       29.6546242534       -8.6355846635  SOLV      4198            0.0000000000
     12708      4209  TIP3      H2             20.2785196015       28.6916842534       -7.8325246635  SOLV      4198            0.0000000000
     12709      4210  TIP3      OH2            17.2531996015       28.4460642534      -17.4755846635  SOLV      4199            0.0000000000
     12710      4210  TIP3      H1             16.9812896015       28.6751642534      -18.3642946635  SOLV      4199            0.0000000000
     12711      4210  TIP3      H2             17.2987696015       29.2839442534      -17.0150546635  SOLV      4199            0.0000000000
     12712      4211  TIP3      OH2            30.8781696015       30.0676542534      -10.7627346635  SOLV      4200            0.0000000000
     12713      4211  TIP3      H1             29.9365396015       30.1260442534      -10.6010446635  SOLV      4200            0.0000000000
     12714      4211  TIP3      H2             31.1547796015       30.9737042534      -10.8997646635  SOLV      4200            0.0000000000
     12715      4212  TIP3      OH2            31.1788696015       18.3541842534       -9.3453446635  SOLV      4201            0.0000000000
     12716      4212  TIP3      H1             30.4427896015       18.9648942534       -9.3832146635  SOLV      4201            0.0000000000
     12717      4212  TIP3      H2             31.8622696015       18.7690842534       -9.8717046635  SOLV      4201            0.0000000000
     12718      4213  TIP3      OH2            24.1820096015       16.4409142534      -11.8795446635  SOLV      4202            0.0000000000
     12719      4213  TIP3      H1             24.0644296015       15.4925142534      -11.9337146635  SOLV      4202            0.0000000000
     12720      4213  TIP3      H2             23.3270196015       16.7735242534      -11.6064346635  SOLV      4202            0.0000000000
     12721      4214  TIP3      OH2            29.1302896015       31.8490042534      -14.1375746635  SOLV      4203            0.0000000000
     12722      4214  TIP3      H1             29.5555196015       31.1417942534      -14.6226146635  SOLV      4203            0.0000000000
     12723      4214  TIP3      H2             29.4472896015       32.6502742534      -14.5543546635  SOLV      4203            0.0000000000
     12724      4215  TIP3      OH2            30.2899396015       29.7498542534      -15.6289146635  SOLV      4204            0.0000000000
     12725      4215  TIP3      H1             30.0324196015       29.0598642534      -16.2403246635  SOLV      4204            0.0000000000
     12726      4215  TIP3      H2             30.3610196015       29.3069742534      -14.7833246635  SOLV      4204            0.0000000000
     12727      4216  TIP3      OH2            31.9759596015       28.3165242534       -7.1515646635  SOLV      4205            0.0000000000
     12728      4216  TIP3      H1             32.1155896015       27.7247742534       -7.8908646635  SOLV      4205            0.0000000000
     12729      4216  TIP3      H2             32.1432396015       29.1891142534       -7.5076846635  SOLV      4205            0.0000000000
     12730      4217  TIP3      OH2            26.4484996015       25.2784742534      -17.3789646635  SOLV      4206            0.0000000000
     12731      4217  TIP3      H1             25.7370496015       25.8134442534      -17.7309146635  SOLV      4206            0.0000000000
     12732      4217  TIP3      H2             27.1394596015       25.3336842534      -18.0390746635  SOLV      4206            0.0000000000
     12733      4218  TIP3      OH2            33.8178896015       24.6563242534       -9.0855246635  SOLV      4207            0.0000000000
     12734      4218  TIP3      H1             33.1652996015       25.3508842534       -8.9964346635  SOLV      4207            0.0000000000
     12735      4218  TIP3      H2             34.2829196015       24.8664142534       -9.8953646635  SOLV      4207            0.0000000000
     12736      4219  TIP3      OH2            29.8542696015       25.4878042534      -16.4273746635  SOLV      4208            0.0000000000
     12737      4219  TIP3      H1             29.1223696015       25.7161742534      -15.8543146635  SOLV      4208            0.0000000000
     12738      4219  TIP3      H2             30.3014896015       24.7740742534      -15.9726246635  SOLV      4208            0.0000000000
     12739      4220  TIP3      OH2            29.7516196015       23.6620642534       -7.3596746635  SOLV      4209            0.0000000000
     12740      4220  TIP3      H1             29.8315296015       24.4255042534       -6.7878246635  SOLV      4209            0.0000000000
     12741      4220  TIP3      H2             29.1503896015       23.9413042534       -8.0501646635  SOLV      4209            0.0000000000
     12742      4221  TIP3      OH2            21.4996396015       26.1184242534      -14.5448746635  SOLV      4210            0.0000000000
     12743      4221  TIP3      H1             21.1691596015       25.7477642534      -15.3631746635  SOLV      4210            0.0000000000
     12744      4221  TIP3      H2             22.0880496015       25.4478242534      -14.1980446635  SOLV      4210            0.0000000000
     12745      4222  TIP3      OH2            22.8663896015       29.5464842534      -11.8636546635  SOLV      4211            0.0000000000
     12746      4222  TIP3      H1             22.7715196015       28.9677942534      -12.6201946635  SOLV      4211            0.0000000000
     12747      4222  TIP3      H2             23.5957496015       29.1750542534      -11.3673746635  SOLV      4211            0.0000000000
     12748      4223  TIP3      OH2            21.8661896015       24.8869842534      -10.9113746635  SOLV      4212            0.0000000000
     12749      4223  TIP3      H1             22.4314396015       25.0084042534      -11.6742546635  SOLV      4212            0.0000000000
     12750      4223  TIP3      H2             22.1850796015       25.5244842534      -10.2725246635  SOLV      4212            0.0000000000
     12751      4224  TIP3      OH2            28.1754096015       30.3901742534      -10.1773246635  SOLV      4213            0.0000000000
     12752      4224  TIP3      H1             27.9350696015       31.0524842534       -9.5294046635  SOLV      4213            0.0000000000
     12753      4224  TIP3      H2             27.9772296015       29.5556942534       -9.7523646635  SOLV      4213            0.0000000000
     12754      4225  TIP3      OH2            22.7462596015       29.2862542534       -6.1941846635  SOLV      4214            0.0000000000
     12755      4225  TIP3      H1             22.4350096015       30.0685742534       -5.7388646635  SOLV      4214            0.0000000000
     12756      4225  TIP3      H2             22.0962796015       29.1331642534       -6.8799846635  SOLV      4214            0.0000000000
     12757      4226  TIP3      OH2            19.6662496015       25.4843642534       -6.9656146635  SOLV      4215            0.0000000000
     12758      4226  TIP3      H1             19.7365696015       26.1350442534       -6.2671146635  SOLV      4215            0.0000000000
     12759      4226  TIP3      H2             18.7754696015       25.5871142534       -7.3005246635  SOLV      4215            0.0000000000
     12760      4227  TIP3      OH2            26.4517096015       31.3869442534      -15.3069446635  SOLV      4216            0.0000000000
     12761      4227  TIP3      H1             26.9254696015       31.6825742534      -14.5295246635  SOLV      4216            0.0000000000
     12762      4227  TIP3      H2             25.8886396015       32.1251042534      -15.5399846635  SOLV      4216            0.0000000000
     12763      4228  TIP3      OH2            20.9858496015       31.3577542534       -5.4308046635  SOLV      4217            0.0000000000
     12764      4228  TIP3      H1             20.9933796015       31.2217242534       -6.3782546635  SOLV      4217            0.0000000000
     12765      4228  TIP3      H2             20.0698896015       31.2405642534       -5.1788046635  SOLV      4217            0.0000000000
     12766      4229  TIP3      OH2            32.4240596015       16.4001342534      -18.9292846635  SOLV      4218            0.0000000000
     12767      4229  TIP3      H1             31.5241296015       16.5390342534      -18.6342246635  SOLV      4218            0.0000000000
     12768      4229  TIP3      H2             32.6758996015       17.2315942534      -19.3311146635  SOLV      4218            0.0000000000
     12769      4230  TIP3      OH2            20.4899096015       25.1878542534      -16.9555946635  SOLV      4219            0.0000000000
     12770      4230  TIP3      H1             20.1980396015       25.9560242534      -17.4464646635  SOLV      4219            0.0000000000
     12771      4230  TIP3      H2             19.8154296015       24.5284742534      -17.1184546635  SOLV      4219            0.0000000000
     12772      4231  TIP3      OH2            16.5829196015       27.5507742534       -8.1406146635  SOLV      4220            0.0000000000
     12773      4231  TIP3      H1             16.0817596015       27.5227142534       -8.9556446635  SOLV      4220            0.0000000000
     12774      4231  TIP3      H2             16.5882896015       26.6450942534       -7.8308846635  SOLV      4220            0.0000000000
     12775      4232  TIP3      OH2            16.3331896015       30.3311542534      -11.2565946635  SOLV      4221            0.0000000000
     12776      4232  TIP3      H1             17.2792496015       30.1868542534      -11.2756446635  SOLV      4221            0.0000000000
     12777      4232  TIP3      H2             16.2208196015       31.1154342534      -10.7194746635  SOLV      4221            0.0000000000
     12778      4233  TIP3      OH2            25.5094396015       30.5710442534       -6.6980846635  SOLV      4222            0.0000000000
     12779      4233  TIP3      H1             25.5968996015       31.3975042534       -6.2231746635  SOLV      4222            0.0000000000
     12780      4233  TIP3      H2             24.6459496015       30.2414242534       -6.4491546635  SOLV      4222            0.0000000000
     12781      4234  TIP3      OH2            19.5773996015       33.1321142534      -15.1111246635  SOLV      4223            0.0000000000
     12782      4234  TIP3      H1             19.7294396015       32.7841542534      -14.2324746635  SOLV      4223            0.0000000000
     12783      4234  TIP3      H2             18.7264396015       32.7758442534      -15.3664046635  SOLV      4223            0.0000000000
     12784      4235  TIP3      OH2            31.6830196015       22.4903742534       -5.0940046635  SOLV      4224            0.0000000000
     12785      4235  TIP3      H1             31.2756996015       22.9709342534       -5.8146746635  SOLV      4224            0.0000000000
     12786      4235  TIP3      H2             31.7235896015       21.5849742534       -5.4019246635  SOLV      4224            0.0000000000
     12787      4236  TIP3      OH2            18.8319696015       28.8743142534       -7.0973346635  SOLV      4225            0.0000000000
     12788      4236  TIP3      H1             19.0480996015       28.5128742534       -6.2377546635  SOLV      4225            0.0000000000
     12789      4236  TIP3      H2             17.9764396015       28.4996942534       -7.3069846635  SOLV      4225            0.0000000000
     12790      4237  TIP3      OH2            21.4507696015       17.3443642534      -11.1019146635  SOLV      4226            0.0000000000
     12791      4237  TIP3      H1             20.5891396015       17.2571842534      -11.5096246635  SOLV      4226            0.0000000000
     12792      4237  TIP3      H2             21.4283396015       18.2003742534      -10.6741546635  SOLV      4226            0.0000000000
     12793      4238  TIP3      OH2            26.1135496015       17.0664042534       -7.7272146635  SOLV      4227            0.0000000000
     12794      4238  TIP3      H1             26.5338596015       16.6511142534       -6.9741546635  SOLV      4227            0.0000000000
     12795      4238  TIP3      H2             25.1805096015       16.8877342534       -7.6100146635  SOLV      4227            0.0000000000
     12796      4239  TIP3      OH2            29.4400396015       20.8219242534       -6.8737646635  SOLV      4228            0.0000000000
     12797      4239  TIP3      H1             28.9259896015       20.6961442534       -6.0761646635  SOLV      4228            0.0000000000
     12798      4239  TIP3      H2             29.2845096015       21.7342342534       -7.1181446635  SOLV      4228            0.0000000000
     12799      4240  TIP3      OH2            25.7752796015       19.5587442534      -20.4421346635  SOLV      4229            0.0000000000
     12800      4240  TIP3      H1             25.5217596015       19.5779042534      -19.5193246635  SOLV      4229            0.0000000000
     12801      4240  TIP3      H2             25.5184896015       18.6872842534      -20.7435146635  SOLV      4229            0.0000000000
     12802      4241  TIP3      OH2            21.5417796015       22.3098142534      -10.0068946635  SOLV      4230            0.0000000000
     12803      4241  TIP3      H1             20.8999896015       22.2695442534       -9.2978846635  SOLV      4230            0.0000000000
     12804      4241  TIP3      H2             21.5789796015       23.2362842534      -10.2445946635  SOLV      4230            0.0000000000
     12805      4242  TIP3      OH2            21.5386896015       22.5308242534      -15.0948946635  SOLV      4231            0.0000000000
     12806      4242  TIP3      H1             20.6459796015       22.1904342534      -15.1535146635  SOLV      4231            0.0000000000
     12807      4242  TIP3      H2             21.9893496015       22.1539142534      -15.8505746635  SOLV      4231            0.0000000000
     12808      4243  TIP3      OH2            27.0742396015       22.9468542534      -16.2778146635  SOLV      4232            0.0000000000
     12809      4243  TIP3      H1             26.6652696015       23.7617142534      -16.5693346635  SOLV      4232            0.0000000000
     12810      4243  TIP3      H2             27.7948596015       22.8068642534      -16.8921046635  SOLV      4232            0.0000000000
     12811      4244  TIP3      OH2            28.0790096015       22.3928942534      -13.4638446635  SOLV      4233            0.0000000000
     12812      4244  TIP3      H1             27.8834596015       22.9985742534      -14.1787846635  SOLV      4233            0.0000000000
     12813      4244  TIP3      H2             28.2602696015       21.5594142534      -13.8982146635  SOLV      4233            0.0000000000
     12814      4245  TIP3      OH2            19.2918296015       22.6301642534       -8.1396946635  SOLV      4234            0.0000000000
     12815      4245  TIP3      H1             19.2537696015       23.0303242534       -7.2709846635  SOLV      4234            0.0000000000
     12816      4245  TIP3      H2             18.8009396015       21.8134042534       -8.0494046635  SOLV      4234            0.0000000000
     12817      4246  TIP3      OH2            22.6575696015       20.0043942534      -21.3410946635  SOLV      4235            0.0000000000
     12818      4246  TIP3      H1             22.2266396015       19.5594042534      -20.6113546635  SOLV      4235            0.0000000000
     12819      4246  TIP3      H2             21.9394396015       20.3760242534      -21.8533446635  SOLV      4235            0.0000000000
     12820      4247  TIP3      OH2            15.8999096015       19.7463442534      -14.2892246635  SOLV      4236            0.0000000000
     12821      4247  TIP3      H1             16.5306796015       19.7175542534      -13.5698346635  SOLV      4236            0.0000000000
     12822      4247  TIP3      H2             16.3493396015       19.3212142534      -15.0196346635  SOLV      4236            0.0000000000
     12823      4248  TIP3      OH2            17.1741196015       20.4925442534      -18.8651846635  SOLV      4237            0.0000000000
     12824      4248  TIP3      H1             17.6482896015       21.0835342534      -19.4500946635  SOLV      4237            0.0000000000
     12825      4248  TIP3      H2             16.4567596015       21.0228342534      -18.5181746635  SOLV      4237            0.0000000000
     12826      4249  TIP3      OH2            27.3429296015       24.0310242534       -8.7926046635  SOLV      4238            0.0000000000
     12827      4249  TIP3      H1             27.6664096015       23.3999942534       -9.4355546635  SOLV      4238            0.0000000000
     12828      4249  TIP3      H2             26.9028596015       23.4962442534       -8.1318646635  SOLV      4238            0.0000000000
     12829      4250  TIP3      OH2            24.1202196015       19.9585742534      -14.0084846635  SOLV      4239            0.0000000000
     12830      4250  TIP3      H1             23.2093296015       20.0152542534      -13.7198846635  SOLV      4239            0.0000000000
     12831      4250  TIP3      H2             24.6255096015       19.8981242534      -13.1977646635  SOLV      4239            0.0000000000
     12832      4251  TIP3      OH2            18.9485596015       21.5872042534      -15.1817246635  SOLV      4240            0.0000000000
     12833      4251  TIP3      H1             18.0593596015       21.6867542534      -15.5217646635  SOLV      4240            0.0000000000
     12834      4251  TIP3      H2             19.2450496015       20.7455042534      -15.5279346635  SOLV      4240            0.0000000000
     12835      4252  TIP3      OH2            22.6017396015       21.5874642534      -17.5252646635  SOLV      4241            0.0000000000
     12836      4252  TIP3      H1             23.5332896015       21.7164642534      -17.3469546635  SOLV      4241            0.0000000000
     12837      4252  TIP3      H2             22.3867696015       22.2568942534      -18.1747946635  SOLV      4241            0.0000000000
     12838      4253  TIP3      OH2            28.5254096015       19.1932042534      -10.7443046635  SOLV      4242            0.0000000000
     12839      4253  TIP3      H1             27.8485696015       19.3245142534      -10.0803346635  SOLV      4242            0.0000000000
     12840      4253  TIP3      H2             28.0398996015       19.0381542534      -11.5545346635  SOLV      4242            0.0000000000
     12841      4254  TIP3      OH2            21.2757596015       22.7816842534      -19.9586546635  SOLV      4243            0.0000000000
     12842      4254  TIP3      H1             20.7332696015       22.4020642534      -20.6498946635  SOLV      4243            0.0000000000
     12843      4254  TIP3      H2             22.1092496015       22.9761542534      -20.3872446635  SOLV      4243            0.0000000000
     12844      4255  TIP3      OH2            19.4108996015       27.3388742534       -4.8594946635  SOLV      4244            0.0000000000
     12845      4255  TIP3      H1             20.1431396015       27.5934642534       -4.2980446635  SOLV      4244            0.0000000000
     12846      4255  TIP3      H2             18.6307696015       27.5434142534       -4.3439546635  SOLV      4244            0.0000000000
     12847      4256  TIP3      OH2            25.4401896015       22.7458742534      -12.1215246635  SOLV      4245            0.0000000000
     12848      4256  TIP3      H1             26.0045296015       22.1995342534      -12.6685646635  SOLV      4245            0.0000000000
     12849      4256  TIP3      H2             25.2925296015       22.2240642534      -11.3327646635  SOLV      4245            0.0000000000
     12850      4257  TIP3      OH2            20.4421596015       18.8824842534      -15.7030446635  SOLV      4246            0.0000000000
     12851      4257  TIP3      H1             20.1251096015       17.9800142534      -15.7385046635  SOLV      4246            0.0000000000
     12852      4257  TIP3      H2             21.2235696015       18.8842242534      -16.2558846635  SOLV      4246            0.0000000000
     12853      4258  TIP3      OH2            24.0667796015       21.1344842534       -9.7074846635  SOLV      4247            0.0000000000
     12854      4258  TIP3      H1             23.2313096015       21.5884342534       -9.5972446635  SOLV      4247            0.0000000000
     12855      4258  TIP3      H2             24.5908396015       21.4103342534       -8.9554946635  SOLV      4247            0.0000000000
     12856      4259  TIP3      OH2            24.6110396015       27.3472542534      -18.0228446635  SOLV      4248            0.0000000000
     12857      4259  TIP3      H1             23.8661396015       26.8397842534      -18.3450546635  SOLV      4248            0.0000000000
     12858      4259  TIP3      H2             24.4767596015       27.3960542534      -17.0763646635  SOLV      4248            0.0000000000
     12859      4260  TIP3      OH2            31.7609296015       26.4800742534       -9.2360846635  SOLV      4249            0.0000000000
     12860      4260  TIP3      H1             32.4028096015       26.9367042534       -9.7798646635  SOLV      4249            0.0000000000
     12861      4260  TIP3      H2             30.9306196015       26.5933142534       -9.6986746635  SOLV      4249            0.0000000000
     12862      4261  TIP3      OH2            28.5087196015       20.1612442534      -19.8235846635  SOLV      4250            0.0000000000
     12863      4261  TIP3      H1             27.5701396015       20.2728042534      -19.9747046635  SOLV      4250            0.0000000000
     12864      4261  TIP3      H2             28.8059296015       21.0179342534      -19.5170146635  SOLV      4250            0.0000000000
     12865      4262  TIP3      OH2            26.1302496015       27.5315842534       -6.7859346635  SOLV      4251            0.0000000000
     12866      4262  TIP3      H1             25.7848596015       27.1498242534       -5.9789746635  SOLV      4251            0.0000000000
     12867      4262  TIP3      H2             25.9302596015       28.4649442534       -6.7146446635  SOLV      4251            0.0000000000
     12868      4263  TIP3      OH2            29.2270696015       22.0285142534      -18.1628446635  SOLV      4252            0.0000000000
     12869      4263  TIP3      H1             30.1189696015       21.8910142534      -17.8437246635  SOLV      4252            0.0000000000
     12870      4263  TIP3      H2             29.2834296015       22.8191242534      -18.6994946635  SOLV      4252            0.0000000000
     12871      4264  TIP3      OH2            19.7358696015       26.6422542534      -12.2530546635  SOLV      4253            0.0000000000
     12872      4264  TIP3      H1             20.4805896015       26.6398242534      -12.8544046635  SOLV      4253            0.0000000000
     12873      4264  TIP3      H2             19.8135296015       25.8186342534      -11.7715446635  SOLV      4253            0.0000000000
     12874      4265  TIP3      OH2            16.7438396015       25.1029442534       -6.9382046635  SOLV      4254            0.0000000000
     12875      4265  TIP3      H1             16.9666996015       24.6849042534       -6.1064546635  SOLV      4254            0.0000000000
     12876      4265  TIP3      H2             16.1418496015       24.4904442534       -7.3609246635  SOLV      4254            0.0000000000
     12877      4266  TIP3      OH2            28.3806096015       29.9931342534       -6.8354346635  SOLV      4255            0.0000000000
     12878      4266  TIP3      H1             27.4800396015       30.1763942534       -7.1030446635  SOLV      4255            0.0000000000
     12879      4266  TIP3      H2             28.4147196015       30.2520642534       -5.9145546635  SOLV      4255            0.0000000000
     12880      4267  TIP3      OH2            29.5674996015       25.8319142534      -10.9817746635  SOLV      4256            0.0000000000
     12881      4267  TIP3      H1             28.6391896015       25.6001042534      -11.0088446635  SOLV      4256            0.0000000000
     12882      4267  TIP3      H2             30.0186096015       25.0548942534      -11.3118946635  SOLV      4256            0.0000000000
     12883      4268  TIP3      OH2            22.1108096015       30.1600742534      -14.8489046635  SOLV      4257            0.0000000000
     12884      4268  TIP3      H1             22.6380296015       30.9335142534      -15.0490246635  SOLV      4257            0.0000000000
     12885      4268  TIP3      H2             21.2306596015       30.3849942534      -15.1505046635  SOLV      4257            0.0000000000
     12886      4269  TIP3      OH2            17.8655796015       25.0224842534      -20.2616646635  SOLV      4258            0.0000000000
     12887      4269  TIP3      H1             18.4815696015       25.6492042534      -19.8821846635  SOLV      4258            0.0000000000
     12888      4269  TIP3      H2             17.0038396015       25.3384642534      -19.9900146635  SOLV      4258            0.0000000000
     12889      4270  TIP3      OH2            23.5380396015       27.8230642534      -15.2724746635  SOLV      4259            0.0000000000
     12890      4270  TIP3      H1             23.2970396015       28.7485042534      -15.2309446635  SOLV      4259            0.0000000000
     12891      4270  TIP3      H2             22.7973996015       27.3641942534      -14.8760846635  SOLV      4259            0.0000000000
     12892      4271  TIP3      OH2            24.0526996015       31.9724242534       -8.9573646635  SOLV      4260            0.0000000000
     12893      4271  TIP3      H1             24.4151696015       32.8269842534       -9.1909246635  SOLV      4260            0.0000000000
     12894      4271  TIP3      H2             24.5842196015       31.6805842534       -8.2167346635  SOLV      4260            0.0000000000
     12895      4272  TIP3      OH2            22.2211196015       32.8448242534      -15.7272546635  SOLV      4261            0.0000000000
     12896      4272  TIP3      H1             21.2711696015       32.9505642534      -15.6759246635  SOLV      4261            0.0000000000
     12897      4272  TIP3      H2             22.5729296015       33.6655642534      -15.3825046635  SOLV      4261            0.0000000000
     12898      4273  TIP3      OH2            27.5967796015       28.0714942534       -9.2568046635  SOLV      4262            0.0000000000
     12899      4273  TIP3      H1             27.1709096015       27.8436642534       -8.4304046635  SOLV      4262            0.0000000000
     12900      4273  TIP3      H2             28.1773596015       27.3326742534       -9.4392746635  SOLV      4262            0.0000000000
     12901      4274  TIP3      OH2            18.3777896015       19.8562142534       -7.3800646635  SOLV      4263            0.0000000000
     12902      4274  TIP3      H1             17.4850196015       20.1947542534       -7.4476646635  SOLV      4263            0.0000000000
     12903      4274  TIP3      H2             18.2790696015       19.0008242534       -6.9619846635  SOLV      4263            0.0000000000
     12904      4275  TIP3      OH2            18.0289896015       31.6606542534       -8.9451246635  SOLV      4264            0.0000000000
     12905      4275  TIP3      H1             18.2460196015       30.7288942534       -8.9761546635  SOLV      4264            0.0000000000
     12906      4275  TIP3      H2             18.2753396015       31.9351542534       -8.0618446635  SOLV      4264            0.0000000000
     12907      4276  TIP3      OH2            22.8275096015       29.6825342534      -19.2796446635  SOLV      4265            0.0000000000
     12908      4276  TIP3      H1             22.9743096015       29.1625142534      -18.4895546635  SOLV      4265            0.0000000000
     12909      4276  TIP3      H2             22.8246796015       30.5892942534      -18.9730546635  SOLV      4265            0.0000000000
     12910      4277  TIP3      OH2            19.2806196015       26.9348642534      -18.7691046635  SOLV      4266            0.0000000000
     12911      4277  TIP3      H1             18.5945496015       27.2871142534      -18.2021346635  SOLV      4266            0.0000000000
     12912      4277  TIP3      H2             19.8034096015       27.6978242534      -19.0156746635  SOLV      4266            0.0000000000
     12913      4278  TIP3      OH2            27.1121296015       19.5972442534       -8.4902046635  SOLV      4267            0.0000000000
     12914      4278  TIP3      H1             27.8109196015       19.6711142534       -7.8402346635  SOLV      4267            0.0000000000
     12915      4278  TIP3      H2             26.7312696015       18.7327442534       -8.3359146635  SOLV      4267            0.0000000000
     12916      4279  TIP3      OH2            27.8966196015       19.2494142534      -17.3929746635  SOLV      4268            0.0000000000
     12917      4279  TIP3      H1             28.1164496015       19.7209542534      -18.1964346635  SOLV      4268            0.0000000000
     12918      4279  TIP3      H2             28.4550196015       19.6436742534      -16.7229146635  SOLV      4268            0.0000000000
     12919      4280  TIP3      OH2            25.0966096015       20.9772942534      -16.5581346635  SOLV      4269            0.0000000000
     12920      4280  TIP3      H1             25.9088696015       21.4816142534      -16.5119646635  SOLV      4269            0.0000000000
     12921      4280  TIP3      H2             24.8519096015       20.8322642534      -15.6441746635  SOLV      4269            0.0000000000
     12922      4281  TIP3      OH2            25.6322496015       21.9635642534       -7.3734746635  SOLV      4270            0.0000000000
     12923      4281  TIP3      H1             25.7512796015       22.5371042534       -6.6164346635  SOLV      4270            0.0000000000
     12924      4281  TIP3      H2             26.2877096015       21.2755042534       -7.2586946635  SOLV      4270            0.0000000000
     12925      4282  TIP3      OH2            25.9802796015       18.0585942534      -15.6200246635  SOLV      4271            0.0000000000
     12926      4282  TIP3      H1             25.6336296015       18.6756542534      -14.9755946635  SOLV      4271            0.0000000000
     12927      4282  TIP3      H2             26.6389696015       18.5591642534      -16.1014746635  SOLV      4271            0.0000000000
     12928      4283  TIP3      OH2            22.9035396015       32.4236142534      -18.5485346635  SOLV      4272            0.0000000000
     12929      4283  TIP3      H1             23.0644096015       33.2233642534      -19.0492746635  SOLV      4272            0.0000000000
     12930      4283  TIP3      H2             22.7063196015       32.7302142534      -17.6634746635  SOLV      4272            0.0000000000
     12931      4284  TIP3      OH2            21.6379796015       19.1215342534      -18.9327746635  SOLV      4273            0.0000000000
     12932      4284  TIP3      H1             21.5544596015       20.0098442534      -18.5861346635  SOLV      4273            0.0000000000
     12933      4284  TIP3      H2             22.5280096015       18.8562042534      -18.7010946635  SOLV      4273            0.0000000000
     12934      4285  TIP3      OH2            31.8368296015       19.8705942534       -6.5385046635  SOLV      4274            0.0000000000
     12935      4285  TIP3      H1             30.9204096015       20.1327642534       -6.6261346635  SOLV      4274            0.0000000000
     12936      4285  TIP3      H2             32.1723296015       19.8674942534       -7.4349746635  SOLV      4274            0.0000000000
     12937      4286  TIP3      OH2            30.4389296015       23.6206942534      -12.4427746635  SOLV      4275            0.0000000000
     12938      4286  TIP3      H1             29.6413696015       23.2057142534      -12.7712746635  SOLV      4275            0.0000000000
     12939      4286  TIP3      H2             30.8840396015       22.9300642534      -11.9517246635  SOLV      4275            0.0000000000
     12940      4287  TIP3      OH2            19.8965096015       29.5487542534      -19.8723246635  SOLV      4276            0.0000000000
     12941      4287  TIP3      H1             20.4886596015       30.2482342534      -19.5960846635  SOLV      4276            0.0000000000
     12942      4287  TIP3      H2             20.3558096015       29.1157042534      -20.5918646635  SOLV      4276            0.0000000000
     12943      4288  TIP3      OH2            18.2124296015       22.2130542534      -20.7563846635  SOLV      4277            0.0000000000
     12944      4288  TIP3      H1             18.1676896015       23.1523642534      -20.5776846635  SOLV      4277            0.0000000000
     12945      4288  TIP3      H2             17.3247496015       21.9775442534      -21.0261746635  SOLV      4277            0.0000000000
     12946      4289  TIP3      OH2            19.0206296015       16.9947142534      -12.0832846635  SOLV      4278            0.0000000000
     12947      4289  TIP3      H1             18.7916096015       17.0539642534      -13.0107846635  SOLV      4278            0.0000000000
     12948      4289  TIP3      H2             18.5779696015       16.2032642534      -11.7768746635  SOLV      4278            0.0000000000
     12949      4290  TIP3      OH2            17.9509596015       30.9354242534      -15.9227046635  SOLV      4279            0.0000000000
     12950      4290  TIP3      H1             17.1188196015       31.4076942534      -15.8955646635  SOLV      4279            0.0000000000
     12951      4290  TIP3      H2             18.4967896015       31.4451842534      -16.5213946635  SOLV      4279            0.0000000000
     12952      4291  TIP3      OH2            17.2393296015       33.5477942534       -4.5929046635  SOLV      4280            0.0000000000
     12953      4291  TIP3      H1             17.7795496015       33.3311942534       -3.8329846635  SOLV      4280            0.0000000000
     12954      4291  TIP3      H2             16.7581296015       32.7423942534       -4.7826546635  SOLV      4280            0.0000000000
     12955      4292  TIP3      OH2            21.8366696015       32.4672342534       -2.9724846635  SOLV      4281            0.0000000000
     12956      4292  TIP3      H1             22.6043896015       32.0083142534       -2.6315646635  SOLV      4281            0.0000000000
     12957      4292  TIP3      H2             21.8152896015       32.2412142534       -3.9023646635  SOLV      4281            0.0000000000
     12958      4293  TIP3      OH2            28.4135396015       30.8473442534       -4.2433346635  SOLV      4282            0.0000000000
     12959      4293  TIP3      H1             28.0624896015       29.9906442534       -4.0002946635  SOLV      4282            0.0000000000
     12960      4293  TIP3      H2             29.1398596015       30.9900142534       -3.6364346635  SOLV      4282            0.0000000000
     12961      4294  TIP3      OH2            17.1462796015       27.3582042534       -3.6384746635  SOLV      4283            0.0000000000
     12962      4294  TIP3      H1             17.2903296015       26.4562742534       -3.9248046635  SOLV      4283            0.0000000000
     12963      4294  TIP3      H2             16.3740196015       27.6444142534       -4.1262446635  SOLV      4283            0.0000000000
     12964      4295  TIP3      OH2            21.4876496015       27.7017742534      -21.5060146635  SOLV      4284            0.0000000000
     12965      4295  TIP3      H1             21.5520596015       26.9077342534      -20.9753746635  SOLV      4284            0.0000000000
     12966      4295  TIP3      H2             22.1405696015       27.5830542534      -22.1958146635  SOLV      4284            0.0000000000
     12967      4296  TIP3      OH2            23.8018896015       27.3280142534       -4.2058346635  SOLV      4285            0.0000000000
     12968      4296  TIP3      H1             23.4732696015       27.5988242534       -5.0630946635  SOLV      4285            0.0000000000
     12969      4296  TIP3      H2             23.9537096015       26.3869942534       -4.2933346635  SOLV      4285            0.0000000000
     12970      4297  TIP3      OH2            29.5364096015       27.2437442534       -6.8226046635  SOLV      4286            0.0000000000
     12971      4297  TIP3      H1             30.2818896015       27.8321142534       -6.9422046635  SOLV      4286            0.0000000000
     12972      4297  TIP3      H2             28.7790896015       27.8257142534       -6.7592946635  SOLV      4286            0.0000000000
     12973      4298  TIP3      OH2            17.9789296015       24.5585342534       -4.2185446635  SOLV      4287            0.0000000000
     12974      4298  TIP3      H1             18.3870496015       23.7011942534       -4.3394846635  SOLV      4287            0.0000000000
     12975      4298  TIP3      H2             17.7186896015       24.5726642534       -3.2975146635  SOLV      4287            0.0000000000
     12976      4299  TIP3      OH2            22.6370296015       25.6743942534      -19.2002146635  SOLV      4288            0.0000000000
     12977      4299  TIP3      H1             22.1772296015       25.1902242534      -18.5143646635  SOLV      4288            0.0000000000
     12978      4299  TIP3      H2             22.8918996015       25.0059342534      -19.8361646635  SOLV      4288            0.0000000000
     12979      4300  TIP3      OH2            21.9259596015       23.5671042534       -6.8442546635  SOLV      4289            0.0000000000
     12980      4300  TIP3      H1             21.3075696015       24.2417642534       -6.5637846635  SOLV      4289            0.0000000000
     12981      4300  TIP3      H2             22.2700796015       23.8884942534       -7.6776346635  SOLV      4289            0.0000000000
     12982      4301  TIP3      OH2            23.7080696015       23.9175742534      -20.9378946635  SOLV      4290            0.0000000000
     12983      4301  TIP3      H1             23.5275696015       23.7626942534      -21.8650646635  SOLV      4290            0.0000000000
     12984      4301  TIP3      H2             24.6581196015       24.0254442534      -20.8931046635  SOLV      4290            0.0000000000
     12985      4302  TIP3      OH2            26.9457796015       26.0386342534       -3.5667746635  SOLV      4291            0.0000000000
     12986      4302  TIP3      H1             27.8988996015       26.1225442534       -3.5941746635  SOLV      4291            0.0000000000
     12987      4302  TIP3      H2             26.7852396015       25.3268142534       -2.9472846635  SOLV      4291            0.0000000000
     12988      4303  TIP3      OH2            22.2653296015       20.9221842534       -5.7619446635  SOLV      4292            0.0000000000
     12989      4303  TIP3      H1             22.4154196015       20.1933142534       -6.3639746635  SOLV      4292            0.0000000000
     12990      4303  TIP3      H2             22.2675696015       21.6993542534       -6.3207246635  SOLV      4292            0.0000000000
     12991      4304  TIP3      OH2            22.6778996015       19.2917642534       -8.2692046635  SOLV      4293            0.0000000000
     12992      4304  TIP3      H1             23.2136496015       19.7434342534       -8.9212746635  SOLV      4293            0.0000000000
     12993      4304  TIP3      H2             21.8258596015       19.1837442534       -8.6917946635  SOLV      4293            0.0000000000
     12994      4305  TIP3      OH2            24.2597396015       24.7313842534       -8.0296846635  SOLV      4294            0.0000000000
     12995      4305  TIP3      H1             25.0102196015       24.5751342534       -8.6029046635  SOLV      4294            0.0000000000
     12996      4305  TIP3      H2             23.9205696015       25.5830442534       -8.3051346635  SOLV      4294            0.0000000000
     12997      4306  TIP3      OH2            28.6753596015       22.5465642534       -3.0011546635  SOLV      4295            0.0000000000
     12998      4306  TIP3      H1             28.8674896015       21.6155042534       -3.1127046635  SOLV      4295            0.0000000000
     12999      4306  TIP3      H2             29.5329896015       22.9715142534       -3.0116146635  SOLV      4295            0.0000000000
     13000      4307  TIP3      OH2            20.7439596015       22.1205342534       -3.8503846635  SOLV      4296            0.0000000000
     13001      4307  TIP3      H1             19.9768596015       21.5880142534       -4.0606246635  SOLV      4296            0.0000000000
     13002      4307  TIP3      H2             21.4228596015       21.8105742534       -4.4497546635  SOLV      4296            0.0000000000
     13003      4308  TIP3      OH2            23.4834496015       16.7483342534       -7.8378446635  SOLV      4297            0.0000000000
     13004      4308  TIP3      H1             23.3854096015       17.6946542534       -7.9432246635  SOLV      4297            0.0000000000
     13005      4308  TIP3      H2             22.7410696015       16.3757142534       -8.3134946635  SOLV      4297            0.0000000000
     13006      4309  TIP3      OH2            24.7474996015       21.0698742534       -4.2740046635  SOLV      4298            0.0000000000
     13007      4309  TIP3      H1             24.5120396015       20.8505442534       -3.3725146635  SOLV      4298            0.0000000000
     13008      4309  TIP3      H2             23.9641896015       20.8629942534       -4.7837546635  SOLV      4298            0.0000000000
     13009      4310  TIP3      OH2            27.4631596015       20.1972242534       -5.1986546635  SOLV      4299            0.0000000000
     13010      4310  TIP3      H1             26.5156996015       20.2291942534       -5.0663246635  SOLV      4299            0.0000000000
     13011      4310  TIP3      H2             27.7758296015       19.5719342534       -4.5448346635  SOLV      4299            0.0000000000
     13012      4311  TIP3      OH2            29.0973096015       18.8313342534       -3.1934646635  SOLV      4300            0.0000000000
     13013      4311  TIP3      H1             29.0004896015       17.8790642534       -3.1992746635  SOLV      4300            0.0000000000
     13014      4311  TIP3      H2             28.7756196015       19.1000142534       -2.3329146635  SOLV      4300            0.0000000000
     13015      4312  TIP3      OH2            18.9242396015       20.0409142534       -4.1459146635  SOLV      4301            0.0000000000
     13016      4312  TIP3      H1             19.1359796015       19.3345242534       -4.7561646635  SOLV      4301            0.0000000000
     13017      4312  TIP3      H2             18.8129896015       19.6035142534       -3.3017946635  SOLV      4301            0.0000000000
     13018      4313  TIP3      OH2            23.7052596015       16.0420742534       -5.1665646635  SOLV      4302            0.0000000000
     13019      4313  TIP3      H1             24.4170996015       15.4022942534       -5.1806546635  SOLV      4302            0.0000000000
     13020      4313  TIP3      H2             23.6042996015       16.3089042534       -6.0802546635  SOLV      4302            0.0000000000
     13021      4314  TIP3      OH2            24.0590096015       17.7249142534       -3.1129346635  SOLV      4303            0.0000000000
     13022      4314  TIP3      H1             23.9272296015       17.2492942534       -3.9330846635  SOLV      4303            0.0000000000
     13023      4314  TIP3      H2             23.4597496015       18.4692742534       -3.1682246635  SOLV      4303            0.0000000000
     13024      4315  TIP3      OH2            17.1737296015       29.2443242534      -20.4537246635  SOLV      4304            0.0000000000
     13025      4315  TIP3      H1             18.0876496015       29.3232142534      -20.1803346635  SOLV      4304            0.0000000000
     13026      4315  TIP3      H2             17.1810396015       28.5572842534      -21.1201646635  SOLV      4304            0.0000000000
     13027      4316  TIP3      OH2            15.8227896015       34.6371742534      -15.3763346635  SOLV      4305            0.0000000000
     13028      4316  TIP3      H1             15.1754996015       34.1753442534      -15.9092146635  SOLV      4305            0.0000000000
     13029      4316  TIP3      H2             16.1772496015       33.9655042534      -14.7937146635  SOLV      4305            0.0000000000
     13030      4317  TIP3      OH2            16.6927096015       32.7178742534      -13.5717146635  SOLV      4306            0.0000000000
     13031      4317  TIP3      H1             16.3583896015       31.8376042534      -13.3996946635  SOLV      4306            0.0000000000
     13032      4317  TIP3      H2             16.9149496015       33.0633742534      -12.7071546635  SOLV      4306            0.0000000000
     13033      4318  TIP3      OH2            33.9507396015       25.1945442534      -15.6934746635  SOLV      4307            0.0000000000
     13034      4318  TIP3      H1             33.2241996015       24.7148042534      -15.2957146635  SOLV      4307            0.0000000000
     13035      4318  TIP3      H2             34.5320696015       25.4000142534      -14.9613146635  SOLV      4307            0.0000000000
     13036      4319  TIP3      OH2            31.7374196015       23.7151942534      -15.1306046635  SOLV      4308            0.0000000000
     13037      4319  TIP3      H1             31.5872996015       22.7700542534      -15.1508246635  SOLV      4308            0.0000000000
     13038      4319  TIP3      H2             31.3838696015       23.9963342534      -14.2866946635  SOLV      4308            0.0000000000
     13039      4320  TIP3      OH2            16.7726596015       25.7934142534      -11.1202246635  SOLV      4309            0.0000000000
     13040      4320  TIP3      H1             16.9569496015       25.7115842534      -12.0559346635  SOLV      4309            0.0000000000
     13041      4320  TIP3      H2             17.6219496015       25.6691142534      -10.6965846635  SOLV      4309            0.0000000000
     13042      4321  TIP3      OH2            34.0904196015       23.5881042534       -4.8072346635  SOLV      4310            0.0000000000
     13043      4321  TIP3      H1             33.2270896015       23.2093142534       -4.9727646635  SOLV      4310            0.0000000000
     13044      4321  TIP3      H2             34.6947896015       22.8495842534       -4.8816546635  SOLV      4310            0.0000000000
     13045      4322  TIP3      OH2            31.4478996015       21.2977742534      -16.6680946635  SOLV      4311            0.0000000000
     13046      4322  TIP3      H1             31.7276096015       20.3908142534      -16.5439246635  SOLV      4311            0.0000000000
     13047      4322  TIP3      H2             32.2070696015       21.7319242534      -17.0571746635  SOLV      4311            0.0000000000
     13048      4323  TIP3      OH2            32.0597296015       21.8795142534      -11.2322046635  SOLV      4312            0.0000000000
     13049      4323  TIP3      H1             32.9925296015       22.0915042534      -11.2666046635  SOLV      4312            0.0000000000
     13050      4323  TIP3      H2             31.8244796015       21.9807242534      -10.3099046635  SOLV      4312            0.0000000000
     13051      4324  TIP3      OH2            32.0889196015       22.6160442534       -8.4562646635  SOLV      4313            0.0000000000
     13052      4324  TIP3      H1             31.2460496015       22.8840842534       -8.0902846635  SOLV      4313            0.0000000000
     13053      4324  TIP3      H2             32.5313496015       23.4382342534       -8.6671546635  SOLV      4313            0.0000000000
     13054      4325  TIP3      OH2            16.3701396015       21.0639142534       -4.9793446635  SOLV      4314            0.0000000000
     13055      4325  TIP3      H1             17.2896296015       20.9417442534       -4.7430346635  SOLV      4314            0.0000000000
     13056      4325  TIP3      H2             15.9205896015       20.3138842534       -4.5899946635  SOLV      4314            0.0000000000
     13057      4326  TIP3      OH2            34.3720796015       16.5960642534       -3.1027646635  SOLV      4315            0.0000000000
     13058      4326  TIP3      H1             34.7217796015       15.9424142534       -3.7082946635  SOLV      4315            0.0000000000
     13059      4326  TIP3      H2             34.5190296015       17.4334742534       -3.5425046635  SOLV      4315            0.0000000000
     13060      4327  TIP3      OH2            32.0613796015       18.5607042534      -16.6198946635  SOLV      4316            0.0000000000
     13061      4327  TIP3      H1             32.2438796015       18.1118542534      -15.7943946635  SOLV      4316            0.0000000000
     13062      4327  TIP3      H2             31.4616696015       17.9761442534      -17.0834346635  SOLV      4316            0.0000000000
     13063      4328  TIP3      OH2            17.5913896015       19.3760742534      -12.0880546635  SOLV      4317            0.0000000000
     13064      4328  TIP3      H1             18.0365496015       18.5843242534      -11.7860846635  SOLV      4317            0.0000000000
     13065      4328  TIP3      H2             18.0576896015       20.0925942534      -11.6574946635  SOLV      4317            0.0000000000
     13066      4329  TIP3      OH2            15.8954196015       22.3753742534      -11.0190346635  SOLV      4318            0.0000000000
     13067      4329  TIP3      H1             16.3873996015       22.1544242534      -11.8098346635  SOLV      4318            0.0000000000
     13068      4329  TIP3      H2             16.2575096015       23.2157142534      -10.7380846635  SOLV      4318            0.0000000000
     13069      4330  TIP3      OH2            33.8917996015       18.7055242534       -4.7536346635  SOLV      4319            0.0000000000
     13070      4330  TIP3      H1             32.9743696015       18.9762342534       -4.7892846635  SOLV      4319            0.0000000000
     13071      4330  TIP3      H2             34.0147396015       18.1703642534       -5.5376646635  SOLV      4319            0.0000000000
     13072      4331  TIP3      OH2            16.2090696015       18.6332842534      -16.9647946635  SOLV      4320            0.0000000000
     13073      4331  TIP3      H1             15.2839096015       18.8419442534      -17.0942446635  SOLV      4320            0.0000000000
     13074      4331  TIP3      H2             16.6630596015       19.1173642534      -17.6545646635  SOLV      4320            0.0000000000
     13075      4332  TIP3      OH2            16.1726096015       17.3711842534       -8.6205446635  SOLV      4321            0.0000000000
     13076      4332  TIP3      H1             15.5076596015       17.1252142534       -7.9774546635  SOLV      4321            0.0000000000
     13077      4332  TIP3      H2             15.7297396015       17.9932242534       -9.1977446635  SOLV      4321            0.0000000000
     13078      4333  TIP3      OH2            18.3645396015       30.5465942534       -4.4759646635  SOLV      4322            0.0000000000
     13079      4333  TIP3      H1             17.5437896015       30.7212442534       -4.9364946635  SOLV      4322            0.0000000000
     13080      4333  TIP3      H2             18.1123196015       30.4730642534       -3.5555246635  SOLV      4322            0.0000000000
     13081      4334  TIP3      OH2            21.3188296015       31.5207142534       -8.2175646635  SOLV      4323            0.0000000000
     13082      4334  TIP3      H1             20.8939396015       32.3305642534       -8.5001046635  SOLV      4323            0.0000000000
     13083      4334  TIP3      H2             22.2231096015       31.6061242534       -8.5195846635  SOLV      4323            0.0000000000
     13084      4335  TIP3      OH2            25.6299696015       32.9197142534       -5.2581946635  SOLV      4324            0.0000000000
     13085      4335  TIP3      H1             25.8147196015       32.5863242534       -4.3801646635  SOLV      4324            0.0000000000
     13086      4335  TIP3      H2             26.4764196015       33.2295742534       -5.5802746635  SOLV      4324            0.0000000000
     13087      4336  TIP3      OH2            32.8923896015       16.7951542534       -6.9345546635  SOLV      4325            0.0000000000
     13088      4336  TIP3      H1             32.0797396015       17.1201842534       -7.3220846635  SOLV      4325            0.0000000000
     13089      4336  TIP3      H2             33.1252396015       16.0350042534       -7.4676446635  SOLV      4325            0.0000000000
     13090      4337  TIP3      OH2            18.7204996015       34.7771042534       -8.1700346635  SOLV      4326            0.0000000000
     13091      4337  TIP3      H1             18.0001396015       35.2172042534       -8.6212646635  SOLV      4326            0.0000000000
     13092      4337  TIP3      H2             18.3548996015       34.5265742534       -7.3216346635  SOLV      4326            0.0000000000
     13093      4338  TIP3      OH2            21.1877596015       34.3774942534       -9.1403146635  SOLV      4327            0.0000000000
     13094      4338  TIP3      H1             20.3229796015       34.4493442534       -8.7363046635  SOLV      4327            0.0000000000
     13095      4338  TIP3      H2             21.1326596015       34.9242242534       -9.9240646635  SOLV      4327            0.0000000000
     13096      4339  TIP3      OH2            25.8983196015       34.2653842534       -9.9647146635  SOLV      4328            0.0000000000
     13097      4339  TIP3      H1             25.4417196015       34.7943542534      -10.6188746635  SOLV      4328            0.0000000000
     13098      4339  TIP3      H2             26.0611196015       34.8685242534       -9.2394846635  SOLV      4328            0.0000000000
     13099      4340  TIP3      OH2            28.2259496015       33.1433442534       -9.0196846635  SOLV      4329            0.0000000000
     13100      4340  TIP3      H1             27.3213196015       33.3083642534       -9.2854746635  SOLV      4329            0.0000000000
     13101      4340  TIP3      H2             28.6548096015       33.9965642534       -9.0853446635  SOLV      4329            0.0000000000
     13102      4341  TIP3      OH2            18.1353096015       33.4003542534      -11.2598546635  SOLV      4330            0.0000000000
     13103      4341  TIP3      H1             18.1169096015       32.9748642534      -10.4026246635  SOLV      4330            0.0000000000
     13104      4341  TIP3      H2             18.9400996015       33.0818542534      -11.6686346635  SOLV      4330            0.0000000000
     13105      4342  TIP3      OH2            20.2766196015       32.1102242534      -12.6048646635  SOLV      4331            0.0000000000
     13106      4342  TIP3      H1             20.0576896015       31.1939642534      -12.4352646635  SOLV      4331            0.0000000000
     13107      4342  TIP3      H2             21.1008396015       32.2502642534      -12.1387246635  SOLV      4331            0.0000000000
     13108      4343  TIP3      OH2            22.8138696015       32.5801542534      -11.7560646635  SOLV      4332            0.0000000000
     13109      4343  TIP3      H1             23.0264396015       31.6920542534      -12.0429746635  SOLV      4332            0.0000000000
     13110      4343  TIP3      H2             22.8783796015       32.5459242534      -10.8016646635  SOLV      4332            0.0000000000
     13111      4344  TIP3      OH2            26.3222396015       18.2442142534      -12.6117346635  SOLV      4333            0.0000000000
     13112      4344  TIP3      H1             25.6479196015       17.6147742534      -12.3561546635  SOLV      4333            0.0000000000
     13113      4344  TIP3      H2             26.8861596015       17.7601042534      -13.2149446635  SOLV      4333            0.0000000000
     13114      4345  TIP3      OH2            31.4649596015       16.3516142534      -12.4990246635  SOLV      4334            0.0000000000
     13115      4345  TIP3      H1             32.0687196015       16.8991542534      -13.0009246635  SOLV      4334            0.0000000000
     13116      4345  TIP3      H2             30.5951596015       16.6706542534      -12.7396146635  SOLV      4334            0.0000000000
     13117      4346  TIP3      OH2            33.1919996015       17.4904842534      -14.1659346635  SOLV      4335            0.0000000000
     13118      4346  TIP3      H1             33.8037496015       16.9760542534      -14.6925746635  SOLV      4335            0.0000000000
     13119      4346  TIP3      H2             33.5743396015       18.3676942534      -14.1424946635  SOLV      4335            0.0000000000
     13120      4347  TIP3      OH2            18.6489896015       16.8782442534      -14.7897446635  SOLV      4336            0.0000000000
     13121      4347  TIP3      H1             17.8719696015       16.6437342534      -15.2971546635  SOLV      4336            0.0000000000
     13122      4347  TIP3      H2             19.1793496015       16.0814542534      -14.7809446635  SOLV      4336            0.0000000000
     13123      4348  TIP3      OH2            17.4853296015       16.6760542534      -18.9861346635  SOLV      4337            0.0000000000
     13124      4348  TIP3      H1             17.9243996015       17.2871042534      -19.5777846635  SOLV      4337            0.0000000000
     13125      4348  TIP3      H2             16.8515696015       17.2144642534      -18.5121346635  SOLV      4337            0.0000000000
     13126      4349  TIP3      OH2            23.2282496015       16.8049542534      -14.9764346635  SOLV      4338            0.0000000000
     13127      4349  TIP3      H1             24.1025896015       17.1933842534      -15.0060046635  SOLV      4338            0.0000000000
     13128      4349  TIP3      H2             23.0923296015       16.5897342534      -14.0537146635  SOLV      4338            0.0000000000
     13129      4350  TIP3      OH2            28.7850896015       16.8349342534      -13.3272646635  SOLV      4339            0.0000000000
     13130      4350  TIP3      H1             28.8612496015       16.9300942534      -14.2766646635  SOLV      4339            0.0000000000
     13131      4350  TIP3      H2             28.5100096015       15.9272242534      -13.1983546635  SOLV      4339            0.0000000000
     13132      4351  TIP3      OH2            30.1383496015       16.8607142534      -17.6347646635  SOLV      4340            0.0000000000
     13133      4351  TIP3      H1             29.4354596015       17.4756342534      -17.8446246635  SOLV      4340            0.0000000000
     13134      4351  TIP3      H2             29.6934896015       16.0233842534      -17.5036746635  SOLV      4340            0.0000000000
     13135      4352  TIP3      OH2            17.3862796015       32.6242742534      -18.0886246635  SOLV      4341            0.0000000000
     13136      4352  TIP3      H1             16.7012696015       32.5861642534      -18.7561146635  SOLV      4341            0.0000000000
     13137      4352  TIP3      H2             17.3899996015       33.5370342534      -17.8004146635  SOLV      4341            0.0000000000
     13138      4353  TIP3      OH2            19.3462396015       18.5922042534      -20.5437246635  SOLV      4342            0.0000000000
     13139      4353  TIP3      H1             19.8375796015       17.9624442534      -21.0711746635  SOLV      4342            0.0000000000
     13140      4353  TIP3      H2             19.9698696015       18.8881442534      -19.8806046635  SOLV      4342            0.0000000000
     13141      4354  TIP3      OH2            24.3722496015       18.8853542534      -18.0866746635  SOLV      4343            0.0000000000
     13142      4354  TIP3      H1             24.5503796015       18.2386742534      -17.4038146635  SOLV      4343            0.0000000000
     13143      4354  TIP3      H2             24.3188696015       19.7191242534      -17.6195646635  SOLV      4343            0.0000000000
     13144      4355  TIP3      OH2            18.6067896015       17.3924342534       -5.2721246635  SOLV      4344            0.0000000000
     13145      4355  TIP3      H1             18.2406096015       16.6266942534       -4.8296546635  SOLV      4344            0.0000000000
     13146      4355  TIP3      H2             19.5196396015       17.4214542534       -4.9856146635  SOLV      4344            0.0000000000
     13147      4356  TIP3      OH2            20.5798696015       16.7428742534       -3.7364146635  SOLV      4345            0.0000000000
     13148      4356  TIP3      H1             21.4782296015       16.4688942534       -3.9210746635  SOLV      4345            0.0000000000
     13149      4356  TIP3      H2             20.1931796015       16.0004742534       -3.2721546635  SOLV      4345            0.0000000000
     13150      4357  TIP3      OH2            29.0010996015       16.0754042534       -3.5541346635  SOLV      4346            0.0000000000
     13151      4357  TIP3      H1             29.0778196015       15.6494742534       -2.7003646635  SOLV      4346            0.0000000000
     13152      4357  TIP3      H2             29.8947596015       16.0888742534       -3.8967846635  SOLV      4346            0.0000000000
     13153      4358  TIP3      OH2            34.7559096015       19.7463442534      -14.2892246635  SOLV      4347            0.0000000000
     13154      4358  TIP3      H1             35.3866796015       19.7175542534      -13.5698346635  SOLV      4347            0.0000000000
     13155      4358  TIP3      H2             35.2053396015       19.3212142534      -15.0196346635  SOLV      4347            0.0000000000
     13156      4359  TIP3      OH2            37.2337896015       19.8562142534       -7.3800646635  SOLV      4348            0.0000000000
     13157      4359  TIP3      H1             36.3410196015       20.1947542534       -7.4476646635  SOLV      4348            0.0000000000
     13158      4359  TIP3      H2             37.1350696015       19.0008242534       -6.9619846635  SOLV      4348            0.0000000000
     13159      4360  TIP3      OH2            37.8766296015       16.9947142534      -12.0832846635  SOLV      4349            0.0000000000
     13160      4360  TIP3      H1             37.6476096015       17.0539642534      -13.0107846635  SOLV      4349            0.0000000000
     13161      4360  TIP3      H2             37.4339696015       16.2032642534      -11.7768746635  SOLV      4349            0.0000000000
     13162      4361  TIP3      OH2            37.7802396015       20.0409142534       -4.1459146635  SOLV      4350            0.0000000000
     13163      4361  TIP3      H1             37.9919796015       19.3345242534       -4.7561646635  SOLV      4350            0.0000000000
     13164      4361  TIP3      H2             37.6689896015       19.6035142534       -3.3017946635  SOLV      4350            0.0000000000
     13165      4362  TIP3      OH2            35.2261396015       21.0639142534       -4.9793446635  SOLV      4351            0.0000000000
     13166      4362  TIP3      H1             36.1456296015       20.9417442534       -4.7430346635  SOLV      4351            0.0000000000
     13167      4362  TIP3      H2             34.7765896015       20.3138842534       -4.5899946635  SOLV      4351            0.0000000000
     13168      4363  TIP3      OH2            36.4473896015       19.3760742534      -12.0880546635  SOLV      4352            0.0000000000
     13169      4363  TIP3      H1             36.8925496015       18.5843242534      -11.7860846635  SOLV      4352            0.0000000000
     13170      4363  TIP3      H2             36.9136896015       20.0925942534      -11.6574946635  SOLV      4352            0.0000000000
     13171      4364  TIP3      OH2            34.7514196015       22.3753742534      -11.0190346635  SOLV      4353            0.0000000000
     13172      4364  TIP3      H1             35.2433996015       22.1544242534      -11.8098346635  SOLV      4353            0.0000000000
     13173      4364  TIP3      H2             35.1135096015       23.2157142534      -10.7380846635  SOLV      4353            0.0000000000
     13174      4365  TIP3      OH2            35.0650696015       18.6332842534      -16.9647946635  SOLV      4354            0.0000000000
     13175      4365  TIP3      H1             34.1399096015       18.8419442534      -17.0942446635  SOLV      4354            0.0000000000
     13176      4365  TIP3      H2             35.5190596015       19.1173642534      -17.6545646635  SOLV      4354            0.0000000000
     13177      4366  TIP3      OH2            35.0286096015       17.3711842534       -8.6205446635  SOLV      4355            0.0000000000
     13178      4366  TIP3      H1             34.3636596015       17.1252142534       -7.9774546635  SOLV      4355            0.0000000000
     13179      4366  TIP3      H2             34.5857396015       17.9932242534       -9.1977446635  SOLV      4355            0.0000000000
     13180      4367  TIP3      OH2            37.5049896015       16.8782442534      -14.7897446635  SOLV      4356            0.0000000000
     13181      4367  TIP3      H1             36.7279696015       16.6437342534      -15.2971546635  SOLV      4356            0.0000000000
     13182      4367  TIP3      H2             38.0353496015       16.0814542534      -14.7809446635  SOLV      4356            0.0000000000
     13183      4368  TIP3      OH2            37.4627896015       17.3924342534       -5.2721246635  SOLV      4357            0.0000000000
     13184      4368  TIP3      H1             37.0966096015       16.6266942534       -4.8296546635  SOLV      4357            0.0000000000
     13185      4368  TIP3      H2             38.3756396015       17.4214542534       -4.9856146635  SOLV      4357            0.0000000000
     13186      4369  TIP3      OH2            39.4358696015       16.7428742534       -3.7364146635  SOLV      4358            0.0000000000
     13187      4369  TIP3      H1             40.3342296015       16.4688942534       -3.9210746635  SOLV      4358            0.0000000000
     13188      4369  TIP3      H2             39.0491796015       16.0004742534       -3.2721546635  SOLV      4358            0.0000000000
     13189      4370  TIP3      OH2           -22.1959203985       35.4520642534       -3.1027646635  SOLV      4359            0.0000000000
     13190      4370  TIP3      H1            -21.8462203985       34.7984142534       -3.7082946635  SOLV      4359            0.0000000000
     13191      4370  TIP3      H2            -22.0489703985       36.2894742534       -3.5425046635  SOLV      4359            0.0000000000
     13192      4371  TIP3      OH2           -23.6756103985       35.6511542534       -6.9345546635  SOLV      4360            0.0000000000
     13193      4371  TIP3      H1            -24.4882603985       35.9761842534       -7.3220846635  SOLV      4360            0.0000000000
     13194      4371  TIP3      H2            -23.4427603985       34.8910042534       -7.4676446635  SOLV      4360            0.0000000000
     13195      4372  TIP3      OH2           -25.1030403985       35.2076142534      -12.4990246635  SOLV      4361            0.0000000000
     13196      4372  TIP3      H1            -24.4992803985       35.7551542534      -13.0009246635  SOLV      4361            0.0000000000
     13197      4372  TIP3      H2            -25.9728403985       35.5266542534      -12.7396146635  SOLV      4361            0.0000000000
     13198      4373  TIP3      OH2           -23.3760003985       36.3464842534      -14.1659346635  SOLV      4362            0.0000000000
     13199      4373  TIP3      H1            -22.7642503985       35.8320542534      -14.6925746635  SOLV      4362            0.0000000000
     13200      4373  TIP3      H2            -22.9936603985       37.2236942534      -14.1424946635  SOLV      4362            0.0000000000
     13201      4374  TIP3      OH2           -13.5299903985       35.2969142534      -11.8795446635  SOLV      4363            0.0000000000
     13202      4374  TIP3      H1            -13.6475703985       34.3485142534      -11.9337146635  SOLV      4363            0.0000000000
     13203      4374  TIP3      H2            -14.3849803985       35.6295242534      -11.6064346635  SOLV      4363            0.0000000000
     13204      4375  TIP3      OH2            -5.2879403985       35.2561342534      -18.9292846635  SOLV      4364            0.0000000000
     13205      4375  TIP3      H1             -6.1878703985       35.3950342534      -18.6342246635  SOLV      4364            0.0000000000
     13206      4375  TIP3      H2             -5.0361003985       36.0875942534      -19.3311146635  SOLV      4364            0.0000000000
     13207      4376  TIP3      OH2           -16.2612303985       36.2003642534      -11.1019146635  SOLV      4365            0.0000000000
     13208      4376  TIP3      H1            -17.1228603985       36.1131842534      -11.5096246635  SOLV      4365            0.0000000000
     13209      4376  TIP3      H2            -16.2836603985       37.0563742534      -10.6741546635  SOLV      4365            0.0000000000
     13210      4377  TIP3      OH2           -11.5984503985       35.9224042534       -7.7272146635  SOLV      4366            0.0000000000
     13211      4377  TIP3      H1            -11.1781403985       35.5071142534       -6.9741546635  SOLV      4366            0.0000000000
     13212      4377  TIP3      H2            -12.5314903985       35.7437342534       -7.6100146635  SOLV      4366            0.0000000000
     13213      4378  TIP3      OH2           -18.6913703985       35.8507142534      -12.0832846635  SOLV      4367            0.0000000000
     13214      4378  TIP3      H1            -18.9203903985       35.9099642534      -13.0107846635  SOLV      4367            0.0000000000
     13215      4378  TIP3      H2            -19.1340303985       35.0592642534      -11.7768746635  SOLV      4367            0.0000000000
     13216      4379  TIP3      OH2           -14.2285503985       35.6043342534       -7.8378446635  SOLV      4368            0.0000000000
     13217      4379  TIP3      H1            -14.3265903985       36.5506542534       -7.9432246635  SOLV      4368            0.0000000000
     13218      4379  TIP3      H2            -14.9709303985       35.2317142534       -8.3134946635  SOLV      4368            0.0000000000
     13219      4380  TIP3      OH2           -14.0067403985       34.8980742534       -5.1665646635  SOLV      4369            0.0000000000
     13220      4380  TIP3      H1            -13.2949003985       34.2582942534       -5.1806546635  SOLV      4369            0.0000000000
     13221      4380  TIP3      H2            -14.1077003985       35.1649042534       -6.0802546635  SOLV      4369            0.0000000000
     13222      4381  TIP3      OH2           -13.6529903985       36.5809142534       -3.1129346635  SOLV      4370            0.0000000000
     13223      4381  TIP3      H1            -13.7847703985       36.1052942534       -3.9330846635  SOLV      4370            0.0000000000
     13224      4381  TIP3      H2            -14.2522503985       37.3252742534       -3.1682246635  SOLV      4370            0.0000000000
     13225      4382  TIP3      OH2            -3.3399203985       35.4520642534       -3.1027646635  SOLV      4371            0.0000000000
     13226      4382  TIP3      H1             -2.9902203985       34.7984142534       -3.7082946635  SOLV      4371            0.0000000000
     13227      4382  TIP3      H2             -3.1929703985       36.2894742534       -3.5425046635  SOLV      4371            0.0000000000
     13228      4383  TIP3      OH2           -21.5393903985       36.2271842534       -8.6205446635  SOLV      4372            0.0000000000
     13229      4383  TIP3      H1            -22.2043403985       35.9812142534       -7.9774546635  SOLV      4372            0.0000000000
     13230      4383  TIP3      H2            -21.9822603985       36.8492242534       -9.1977446635  SOLV      4372            0.0000000000
     13231      4384  TIP3      OH2            -4.8196103985       35.6511542534       -6.9345546635  SOLV      4373            0.0000000000
     13232      4384  TIP3      H1             -5.6322603985       35.9761842534       -7.3220846635  SOLV      4373            0.0000000000
     13233      4384  TIP3      H2             -4.5867603985       34.8910042534       -7.4676446635  SOLV      4373            0.0000000000
     13234      4385  TIP3      OH2           -11.3897603985       37.1002142534      -12.6117346635  SOLV      4374            0.0000000000
     13235      4385  TIP3      H1            -12.0640803985       36.4707742534      -12.3561546635  SOLV      4374            0.0000000000
     13236      4385  TIP3      H2            -10.8258403985       36.6161042534      -13.2149446635  SOLV      4374            0.0000000000
     13237      4386  TIP3      OH2            -6.2470403985       35.2076142534      -12.4990246635  SOLV      4375            0.0000000000
     13238      4386  TIP3      H1             -5.6432803985       35.7551542534      -13.0009246635  SOLV      4375            0.0000000000
     13239      4386  TIP3      H2             -7.1168403985       35.5266542534      -12.7396146635  SOLV      4375            0.0000000000
     13240      4387  TIP3      OH2            -4.5200003985       36.3464842534      -14.1659346635  SOLV      4376            0.0000000000
     13241      4387  TIP3      H1             -3.9082503985       35.8320542534      -14.6925746635  SOLV      4376            0.0000000000
     13242      4387  TIP3      H2             -4.1376603985       37.2236942534      -14.1424946635  SOLV      4376            0.0000000000
     13243      4388  TIP3      OH2           -19.0630103985       35.7342442534      -14.7897446635  SOLV      4377            0.0000000000
     13244      4388  TIP3      H1            -19.8400303985       35.4997342534      -15.2971546635  SOLV      4377            0.0000000000
     13245      4388  TIP3      H2            -18.5326503985       34.9374542534      -14.7809446635  SOLV      4377            0.0000000000
     13246      4389  TIP3      OH2           -20.2266703985       35.5320542534      -18.9861346635  SOLV      4378            0.0000000000
     13247      4389  TIP3      H1            -19.7876003985       36.1431042534      -19.5777846635  SOLV      4378            0.0000000000
     13248      4389  TIP3      H2            -20.8604303985       36.0704642534      -18.5121346635  SOLV      4378            0.0000000000
     13249      4390  TIP3      OH2           -14.4837503985       35.6609542534      -14.9764346635  SOLV      4379            0.0000000000
     13250      4390  TIP3      H1            -13.6094103985       36.0493842534      -15.0060046635  SOLV      4379            0.0000000000
     13251      4390  TIP3      H2            -14.6196703985       35.4457342534      -14.0537146635  SOLV      4379            0.0000000000
     13252      4391  TIP3      OH2            -8.9269103985       35.6909342534      -13.3272646635  SOLV      4380            0.0000000000
     13253      4391  TIP3      H1             -8.8507503985       35.7860942534      -14.2766646635  SOLV      4380            0.0000000000
     13254      4391  TIP3      H2             -9.2019903985       34.7832242534      -13.1983546635  SOLV      4380            0.0000000000
     13255      4392  TIP3      OH2            -7.5736503985       35.7167142534      -17.6347646635  SOLV      4381            0.0000000000
     13256      4392  TIP3      H1             -8.2765403985       36.3316342534      -17.8446246635  SOLV      4381            0.0000000000
     13257      4392  TIP3      H2             -8.0185103985       34.8793842534      -17.5036746635  SOLV      4381            0.0000000000
     13258      4393  TIP3      OH2           -19.1052103985       36.2484342534       -5.2721246635  SOLV      4382            0.0000000000
     13259      4393  TIP3      H1            -19.4713903985       35.4826942534       -4.8296546635  SOLV      4382            0.0000000000
     13260      4393  TIP3      H2            -18.1923603985       36.2774542534       -4.9856146635  SOLV      4382            0.0000000000
     13261      4394  TIP3      OH2           -17.1321303985       35.5988742534       -3.7364146635  SOLV      4383            0.0000000000
     13262      4394  TIP3      H1            -16.2337703985       35.3248942534       -3.9210746635  SOLV      4383            0.0000000000
     13263      4394  TIP3      H2            -17.5188203985       34.8564742534       -3.2721546635  SOLV      4383            0.0000000000
     13264      4395  TIP3      OH2            -8.7109003985       34.9314042534       -3.5541346635  SOLV      4384            0.0000000000
     13265      4395  TIP3      H1             -8.6341803985       34.5054742534       -2.7003646635  SOLV      4384            0.0000000000
     13266      4395  TIP3      H2             -7.8172403985       34.9448742534       -3.8967846635  SOLV      4384            0.0000000000
     13267      4396  TIP3      OH2             5.3260096015       35.2969142534      -11.8795446635  SOLV      4385            0.0000000000
     13268      4396  TIP3      H1              5.2084296015       34.3485142534      -11.9337146635  SOLV      4385            0.0000000000
     13269      4396  TIP3      H2              4.4710196015       35.6295242534      -11.6064346635  SOLV      4385            0.0000000000
     13270      4397  TIP3      OH2            13.5680596015       35.2561342534      -18.9292846635  SOLV      4386            0.0000000000
     13271      4397  TIP3      H1             12.6681296015       35.3950342534      -18.6342246635  SOLV      4386            0.0000000000
     13272      4397  TIP3      H2             13.8198996015       36.0875942534      -19.3311146635  SOLV      4386            0.0000000000
     13273      4398  TIP3      OH2             2.5947696015       36.2003642534      -11.1019146635  SOLV      4387            0.0000000000
     13274      4398  TIP3      H1              1.7331396015       36.1131842534      -11.5096246635  SOLV      4387            0.0000000000
     13275      4398  TIP3      H2              2.5723396015       37.0563742534      -10.6741546635  SOLV      4387            0.0000000000
     13276      4399  TIP3      OH2             7.2575496015       35.9224042534       -7.7272146635  SOLV      4388            0.0000000000
     13277      4399  TIP3      H1              7.6778596015       35.5071142534       -6.9741546635  SOLV      4388            0.0000000000
     13278      4399  TIP3      H2              6.3245096015       35.7437342534       -7.6100146635  SOLV      4388            0.0000000000
     13279      4400  TIP3      OH2             0.1646296015       35.8507142534      -12.0832846635  SOLV      4389            0.0000000000
     13280      4400  TIP3      H1             -0.0643903985       35.9099642534      -13.0107846635  SOLV      4389            0.0000000000
     13281      4400  TIP3      H2             -0.2780303985       35.0592642534      -11.7768746635  SOLV      4389            0.0000000000
     13282      4401  TIP3      OH2             4.6274496015       35.6043342534       -7.8378446635  SOLV      4390            0.0000000000
     13283      4401  TIP3      H1              4.5294096015       36.5506542534       -7.9432246635  SOLV      4390            0.0000000000
     13284      4401  TIP3      H2              3.8850696015       35.2317142534       -8.3134946635  SOLV      4390            0.0000000000
     13285      4402  TIP3      OH2             4.8492596015       34.8980742534       -5.1665646635  SOLV      4391            0.0000000000
     13286      4402  TIP3      H1              5.5610996015       34.2582942534       -5.1806546635  SOLV      4391            0.0000000000
     13287      4402  TIP3      H2              4.7482996015       35.1649042534       -6.0802546635  SOLV      4391            0.0000000000
     13288      4403  TIP3      OH2             5.2030096015       36.5809142534       -3.1129346635  SOLV      4392            0.0000000000
     13289      4403  TIP3      H1              5.0712296015       36.1052942534       -3.9330846635  SOLV      4392            0.0000000000
     13290      4403  TIP3      H2              4.6037496015       37.3252742534       -3.1682246635  SOLV      4392            0.0000000000
     13291      4404  TIP3      OH2            15.5160796015       35.4520642534       -3.1027646635  SOLV      4393            0.0000000000
     13292      4404  TIP3      H1             15.8657796015       34.7984142534       -3.7082946635  SOLV      4393            0.0000000000
     13293      4404  TIP3      H2             15.6630296015       36.2894742534       -3.5425046635  SOLV      4393            0.0000000000
     13294      4405  TIP3      OH2            -2.6833903985       36.2271842534       -8.6205446635  SOLV      4394            0.0000000000
     13295      4405  TIP3      H1             -3.3483403985       35.9812142534       -7.9774546635  SOLV      4394            0.0000000000
     13296      4405  TIP3      H2             -3.1262603985       36.8492242534       -9.1977446635  SOLV      4394            0.0000000000
     13297      4406  TIP3      OH2            14.0363896015       35.6511542534       -6.9345546635  SOLV      4395            0.0000000000
     13298      4406  TIP3      H1             13.2237396015       35.9761842534       -7.3220846635  SOLV      4395            0.0000000000
     13299      4406  TIP3      H2             14.2692396015       34.8910042534       -7.4676446635  SOLV      4395            0.0000000000
     13300      4407  TIP3      OH2             7.4662396015       37.1002142534      -12.6117346635  SOLV      4396            0.0000000000
     13301      4407  TIP3      H1              6.7919196015       36.4707742534      -12.3561546635  SOLV      4396            0.0000000000
     13302      4407  TIP3      H2              8.0301596015       36.6161042534      -13.2149446635  SOLV      4396            0.0000000000
     13303      4408  TIP3      OH2            12.6089596015       35.2076142534      -12.4990246635  SOLV      4397            0.0000000000
     13304      4408  TIP3      H1             13.2127196015       35.7551542534      -13.0009246635  SOLV      4397            0.0000000000
     13305      4408  TIP3      H2             11.7391596015       35.5266542534      -12.7396146635  SOLV      4397            0.0000000000
     13306      4409  TIP3      OH2            14.3359996015       36.3464842534      -14.1659346635  SOLV      4398            0.0000000000
     13307      4409  TIP3      H1             14.9477496015       35.8320542534      -14.6925746635  SOLV      4398            0.0000000000
     13308      4409  TIP3      H2             14.7183396015       37.2236942534      -14.1424946635  SOLV      4398            0.0000000000
     13309      4410  TIP3      OH2            -0.2070103985       35.7342442534      -14.7897446635  SOLV      4399            0.0000000000
     13310      4410  TIP3      H1             -0.9840303985       35.4997342534      -15.2971546635  SOLV      4399            0.0000000000
     13311      4410  TIP3      H2              0.3233496015       34.9374542534      -14.7809446635  SOLV      4399            0.0000000000
     13312      4411  TIP3      OH2            -1.3706703985       35.5320542534      -18.9861346635  SOLV      4400            0.0000000000
     13313      4411  TIP3      H1             -0.9316003985       36.1431042534      -19.5777846635  SOLV      4400            0.0000000000
     13314      4411  TIP3      H2             -2.0044303985       36.0704642534      -18.5121346635  SOLV      4400            0.0000000000
     13315      4412  TIP3      OH2             4.3722496015       35.6609542534      -14.9764346635  SOLV      4401            0.0000000000
     13316      4412  TIP3      H1              5.2465896015       36.0493842534      -15.0060046635  SOLV      4401            0.0000000000
     13317      4412  TIP3      H2              4.2363296015       35.4457342534      -14.0537146635  SOLV      4401            0.0000000000
     13318      4413  TIP3      OH2             9.9290896015       35.6909342534      -13.3272646635  SOLV      4402            0.0000000000
     13319      4413  TIP3      H1             10.0052496015       35.7860942534      -14.2766646635  SOLV      4402            0.0000000000
     13320      4413  TIP3      H2              9.6540096015       34.7832242534      -13.1983546635  SOLV      4402            0.0000000000
     13321      4414  TIP3      OH2            11.2823496015       35.7167142534      -17.6347646635  SOLV      4403            0.0000000000
     13322      4414  TIP3      H1             10.5794596015       36.3316342534      -17.8446246635  SOLV      4403            0.0000000000
     13323      4414  TIP3      H2             10.8374896015       34.8793842534      -17.5036746635  SOLV      4403            0.0000000000
     13324      4415  TIP3      OH2            -0.2492103985       36.2484342534       -5.2721246635  SOLV      4404            0.0000000000
     13325      4415  TIP3      H1             -0.6153903985       35.4826942534       -4.8296546635  SOLV      4404            0.0000000000
     13326      4415  TIP3      H2              0.6636396015       36.2774542534       -4.9856146635  SOLV      4404            0.0000000000
     13327      4416  TIP3      OH2             1.7238696015       35.5988742534       -3.7364146635  SOLV      4405            0.0000000000
     13328      4416  TIP3      H1              2.6222296015       35.3248942534       -3.9210746635  SOLV      4405            0.0000000000
     13329      4416  TIP3      H2              1.3371796015       34.8564742534       -3.2721546635  SOLV      4405            0.0000000000
     13330      4417  TIP3      OH2            10.1450996015       34.9314042534       -3.5541346635  SOLV      4406            0.0000000000
     13331      4417  TIP3      H1             10.2218196015       34.5054742534       -2.7003646635  SOLV      4406            0.0000000000
     13332      4417  TIP3      H2             11.0387596015       34.9448742534       -3.8967846635  SOLV      4406            0.0000000000
     13333      4418  TIP3      OH2            24.1820096015       35.2969142534      -11.8795446635  SOLV      4407            0.0000000000
     13334      4418  TIP3      H1             24.0644296015       34.3485142534      -11.9337146635  SOLV      4407            0.0000000000
     13335      4418  TIP3      H2             23.3270196015       35.6295242534      -11.6064346635  SOLV      4407            0.0000000000
     13336      4419  TIP3      OH2            21.4507696015       36.2003642534      -11.1019146635  SOLV      4408            0.0000000000
     13337      4419  TIP3      H1             20.5891396015       36.1131842534      -11.5096246635  SOLV      4408            0.0000000000
     13338      4419  TIP3      H2             21.4283396015       37.0563742534      -10.6741546635  SOLV      4408            0.0000000000
     13339      4420  TIP3      OH2            26.1135496015       35.9224042534       -7.7272146635  SOLV      4409            0.0000000000
     13340      4420  TIP3      H1             26.5338596015       35.5071142534       -6.9741546635  SOLV      4409            0.0000000000
     13341      4420  TIP3      H2             25.1805096015       35.7437342534       -7.6100146635  SOLV      4409            0.0000000000
     13342      4421  TIP3      OH2            19.0206296015       35.8507142534      -12.0832846635  SOLV      4410            0.0000000000
     13343      4421  TIP3      H1             18.7916096015       35.9099642534      -13.0107846635  SOLV      4410            0.0000000000
     13344      4421  TIP3      H2             18.5779696015       35.0592642534      -11.7768746635  SOLV      4410            0.0000000000
     13345      4422  TIP3      OH2            23.4834496015       35.6043342534       -7.8378446635  SOLV      4411            0.0000000000
     13346      4422  TIP3      H1             23.3854096015       36.5506542534       -7.9432246635  SOLV      4411            0.0000000000
     13347      4422  TIP3      H2             22.7410696015       35.2317142534       -8.3134946635  SOLV      4411            0.0000000000
     13348      4423  TIP3      OH2            23.7052596015       34.8980742534       -5.1665646635  SOLV      4412            0.0000000000
     13349      4423  TIP3      H1             24.4170996015       34.2582942534       -5.1806546635  SOLV      4412            0.0000000000
     13350      4423  TIP3      H2             23.6042996015       35.1649042534       -6.0802546635  SOLV      4412            0.0000000000
     13351      4424  TIP3      OH2            24.0590096015       36.5809142534       -3.1129346635  SOLV      4413            0.0000000000
     13352      4424  TIP3      H1             23.9272296015       36.1052942534       -3.9330846635  SOLV      4413            0.0000000000
     13353      4424  TIP3      H2             23.4597496015       37.3252742534       -3.1682246635  SOLV      4413            0.0000000000
     13354      4425  TIP3      OH2            16.1726096015       36.2271842534       -8.6205446635  SOLV      4414            0.0000000000
     13355      4425  TIP3      H1             15.5076596015       35.9812142534       -7.9774546635  SOLV      4414            0.0000000000
     13356      4425  TIP3      H2             15.7297396015       36.8492242534       -9.1977446635  SOLV      4414            0.0000000000
     13357      4426  TIP3      OH2            26.3222396015       37.1002142534      -12.6117346635  SOLV      4415            0.0000000000
     13358      4426  TIP3      H1             25.6479196015       36.4707742534      -12.3561546635  SOLV      4415            0.0000000000
     13359      4426  TIP3      H2             26.8861596015       36.6161042534      -13.2149446635  SOLV      4415            0.0000000000
     13360      4427  TIP3      OH2            18.6489896015       35.7342442534      -14.7897446635  SOLV      4416            0.0000000000
     13361      4427  TIP3      H1             17.8719696015       35.4997342534      -15.2971546635  SOLV      4416            0.0000000000
     13362      4427  TIP3      H2             19.1793496015       34.9374542534      -14.7809446635  SOLV      4416            0.0000000000
     13363      4428  TIP3      OH2            17.4853296015       35.5320542534      -18.9861346635  SOLV      4417            0.0000000000
     13364      4428  TIP3      H1             17.9243996015       36.1431042534      -19.5777846635  SOLV      4417            0.0000000000
     13365      4428  TIP3      H2             16.8515696015       36.0704642534      -18.5121346635  SOLV      4417            0.0000000000
     13366      4429  TIP3      OH2            23.2282496015       35.6609542534      -14.9764346635  SOLV      4418            0.0000000000
     13367      4429  TIP3      H1             24.1025896015       36.0493842534      -15.0060046635  SOLV      4418            0.0000000000
     13368      4429  TIP3      H2             23.0923296015       35.4457342534      -14.0537146635  SOLV      4418            0.0000000000
     13369      4430  TIP3      OH2            18.6067896015       36.2484342534       -5.2721246635  SOLV      4419            0.0000000000
     13370      4430  TIP3      H1             18.2406096015       35.4826942534       -4.8296546635  SOLV      4419            0.0000000000
     13371      4430  TIP3      H2             19.5196396015       36.2774542534       -4.9856146635  SOLV      4419            0.0000000000
     13372      4431  TIP3      OH2            20.5798696015       35.5988742534       -3.7364146635  SOLV      4420            0.0000000000
     13373      4431  TIP3      H1             21.4782296015       35.3248942534       -3.9210746635  SOLV      4420            0.0000000000
     13374      4431  TIP3      H2             20.1931796015       34.8564742534       -3.2721546635  SOLV      4420            0.0000000000
     13375      4432  TIP3      OH2           -28.8407503985      -30.5335257466        4.0250053365  SOLV      4421            0.0000000000
     13376      4432  TIP3      H1            -28.7516403985      -29.5897057466        3.8927153365  SOLV      4421            0.0000000000
     13377      4432  TIP3      H2            -29.4789903985      -30.8088857466        3.3669453365  SOLV      4421            0.0000000000
     13378      4433  TIP3      OH2           -26.2016003985      -28.3394157466        5.7453353365  SOLV      4422            0.0000000000
     13379      4433  TIP3      H1            -26.6423303985      -29.0598157466        6.1958953365  SOLV      4422            0.0000000000
     13380      4433  TIP3      H2            -26.2146303985      -27.6186957466        6.3751053365  SOLV      4422            0.0000000000
     13381      4434  TIP3      OH2           -29.0900503985      -23.2352457466        5.9573753365  SOLV      4423            0.0000000000
     13382      4434  TIP3      H1            -28.4704103985      -23.9117757466        5.6842953365  SOLV      4423            0.0000000000
     13383      4434  TIP3      H2            -29.2983103985      -23.4531657466        6.8658653365  SOLV      4423            0.0000000000
     13384      4435  TIP3      OH2           -31.5181803985      -28.8463157466        7.8499253365  SOLV      4424            0.0000000000
     13385      4435  TIP3      H1            -31.2143903985      -29.5321757466        7.2553353365  SOLV      4424            0.0000000000
     13386      4435  TIP3      H2            -30.7967803985      -28.7274457466        8.4677253365  SOLV      4424            0.0000000000
     13387      4436  TIP3      OH2           -22.8552003985      -37.2447857466        8.7105453365  SOLV      4425            0.0000000000
     13388      4436  TIP3      H1            -22.8059803985      -36.6346657466        9.4464553365  SOLV      4425            0.0000000000
     13389      4436  TIP3      H2            -22.4296903985      -36.7836957466        7.9876553365  SOLV      4425            0.0000000000
     13390      4437  TIP3      OH2           -22.4637403985      -35.7668657466       10.9465253365  SOLV      4426            0.0000000000
     13391      4437  TIP3      H1            -23.1522803985      -35.1087957466       10.8511853365  SOLV      4426            0.0000000000
     13392      4437  TIP3      H2            -22.4482803985      -35.9640757466       11.8830653365  SOLV      4426            0.0000000000
     13393      4438  TIP3      OH2           -29.0434803985      -27.9324857466        3.0678753365  SOLV      4427            0.0000000000
     13394      4438  TIP3      H1            -29.3389703985      -28.2552557466        2.2165653365  SOLV      4427            0.0000000000
     13395      4438  TIP3      H2            -29.3677003985      -27.0328157466        3.1091353365  SOLV      4427            0.0000000000
     13396      4439  TIP3      OH2           -25.6898303985      -26.5003457466        8.0932653365  SOLV      4428            0.0000000000
     13397      4439  TIP3      H1            -26.6314603985      -26.4419557466        8.2549553365  SOLV      4428            0.0000000000
     13398      4439  TIP3      H2            -25.4132203985      -25.5942957466        7.9562353365  SOLV      4428            0.0000000000
     13399      4440  TIP3      OH2           -27.4377103985      -24.7189957466        4.7184253365  SOLV      4429            0.0000000000
     13400      4440  TIP3      H1            -27.0124803985      -25.4262057466        4.2333853365  SOLV      4429            0.0000000000
     13401      4440  TIP3      H2            -27.1207103985      -23.9177257466        4.3016453365  SOLV      4429            0.0000000000
     13402      4441  TIP3      OH2           -26.2780603985      -26.8181457466        3.2270853365  SOLV      4430            0.0000000000
     13403      4441  TIP3      H1            -26.5355803985      -27.5081357466        2.6156753365  SOLV      4430            0.0000000000
     13404      4441  TIP3      H2            -26.2069803985      -27.2610257466        4.0726753365  SOLV      4430            0.0000000000
     13405      4442  TIP3      OH2           -24.5920403985      -28.2514757466       11.7044353365  SOLV      4431            0.0000000000
     13406      4442  TIP3      H1            -24.4524103985      -28.8432257466       10.9651353365  SOLV      4431            0.0000000000
     13407      4442  TIP3      H2            -24.4247603985      -27.3788857466       11.3483153365  SOLV      4431            0.0000000000
     13408      4443  TIP3      OH2           -30.1195003985      -31.2895257466        1.4770353365  SOLV      4432            0.0000000000
     13409      4443  TIP3      H1            -30.8309503985      -30.7545557466        1.1250853365  SOLV      4432            0.0000000000
     13410      4443  TIP3      H2            -29.4285403985      -31.2343157466        0.8169253365  SOLV      4432            0.0000000000
     13411      4444  TIP3      OH2           -22.7501103985      -31.9116757466        9.7704753365  SOLV      4433            0.0000000000
     13412      4444  TIP3      H1            -23.4027003985      -31.2171157466        9.8595653365  SOLV      4433            0.0000000000
     13413      4444  TIP3      H2            -22.2850803985      -31.7015857466        8.9606353365  SOLV      4433            0.0000000000
     13414      4445  TIP3      OH2           -26.7137303985      -31.0801957466        2.4286253365  SOLV      4434            0.0000000000
     13415      4445  TIP3      H1            -27.4456303985      -30.8518257466        3.0016853365  SOLV      4434            0.0000000000
     13416      4445  TIP3      H2            -26.2665103985      -31.7939257466        2.8833753365  SOLV      4434            0.0000000000
     13417      4446  TIP3      OH2           -26.8163803985      -32.9059357466       11.4963253365  SOLV      4435            0.0000000000
     13418      4446  TIP3      H1            -26.7364703985      -32.1424957466       12.0681753365  SOLV      4435            0.0000000000
     13419      4446  TIP3      H2            -27.4176103985      -32.6266957466       10.8058353365  SOLV      4435            0.0000000000
     13420      4447  TIP3      OH2           -28.3925903985      -26.1778257466        8.6786753365  SOLV      4436            0.0000000000
     13421      4447  TIP3      H1            -28.6329303985      -25.5155157466        9.3265953365  SOLV      4436            0.0000000000
     13422      4447  TIP3      H2            -28.5907703985      -27.0123057466        9.1036353365  SOLV      4436            0.0000000000
     13423      4448  TIP3      OH2           -27.8427803985      -31.9179057466        0.1137453365  SOLV      4437            0.0000000000
     13424      4448  TIP3      H1            -27.2632303985      -31.7678757466        0.8606353365  SOLV      4437            0.0000000000
     13425      4448  TIP3      H2            -27.4287803985      -31.4471657466       -0.6096146635  SOLV      4437            0.0000000000
     13426      4449  TIP3      OH2           -30.1162903985      -25.1810557466        3.5490553365  SOLV      4438            0.0000000000
     13427      4449  TIP3      H1            -29.6425303985      -24.8854257466        4.3264753365  SOLV      4438            0.0000000000
     13428      4449  TIP3      H2            -30.6793603985      -24.4428957466        3.3160153365  SOLV      4438            0.0000000000
     13429      4450  TIP3      OH2           -22.9548003985      -25.8016257466       -1.6968946635  SOLV      4439            0.0000000000
     13430      4450  TIP3      H1            -22.8814503985      -24.8626057466       -1.5263646635  SOLV      4439            0.0000000000
     13431      4450  TIP3      H2            -22.0492903985      -26.1067657466       -1.7531646635  SOLV      4439            0.0000000000
     13432      4451  TIP3      OH2           -22.0369603985      -25.5708757466       13.2817753365  SOLV      4440            0.0000000000
     13433      4451  TIP3      H1            -22.0862803985      -26.5260657466       13.2445353365  SOLV      4440            0.0000000000
     13434      4451  TIP3      H2            -22.8637303985      -25.3033457466       13.6831553365  SOLV      4440            0.0000000000
     13435      4452  TIP3      OH2           -31.0585603985      -25.9969557466       12.1579153365  SOLV      4441            0.0000000000
     13436      4452  TIP3      H1            -30.9711003985      -25.1704957466       12.6328253365  SOLV      4441            0.0000000000
     13437      4452  TIP3      H2            -31.9220503985      -26.3265757466       12.4068453365  SOLV      4441            0.0000000000
     13438      4453  TIP3      OH2           -30.6439803985      -22.2245857466        1.9639753365  SOLV      4442            0.0000000000
     13439      4453  TIP3      H1            -30.7193803985      -22.3458657466        1.0174953365  SOLV      4442            0.0000000000
     13440      4453  TIP3      H2            -30.6111103985      -21.2753157466        2.0824353365  SOLV      4442            0.0000000000
     13441      4454  TIP3      OH2           -27.5423803985      -23.0705657466       -1.0337846635  SOLV      4443            0.0000000000
     13442      4454  TIP3      H1            -27.1675403985      -23.8149557466       -1.5045246635  SOLV      4443            0.0000000000
     13443      4454  TIP3      H2            -27.5380103985      -23.3405057466       -0.1154546635  SOLV      4443            0.0000000000
     13444      4455  TIP3      OH2           -27.8735703985      -23.1448557466        1.7154353365  SOLV      4444            0.0000000000
     13445      4455  TIP3      H1            -28.8085903985      -23.0446657466        1.8941353365  SOLV      4444            0.0000000000
     13446      4455  TIP3      H2            -27.5933803985      -23.8542557466        2.2937553365  SOLV      4444            0.0000000000
     13447      4456  TIP3      OH2           -24.8849803985      -34.0776257466       13.7619953365  SOLV      4445            0.0000000000
     13448      4456  TIP3      H1            -25.2923003985      -33.5970657466       13.0413253365  SOLV      4445            0.0000000000
     13449      4456  TIP3      H2            -24.8444103985      -34.9830257466       13.4540753365  SOLV      4445            0.0000000000
     13450      4457  TIP3      OH2           -26.3654703985      -30.8850757466       -2.2564646635  SOLV      4446            0.0000000000
     13451      4457  TIP3      H1            -26.3233903985      -31.1076857466       -3.1864646635  SOLV      4446            0.0000000000
     13452      4457  TIP3      H2            -25.5162603985      -30.4863657466       -2.0664746635  SOLV      4446            0.0000000000
     13453      4458  TIP3      OH2           -24.7550803985      -21.7032557466       14.3884553365  SOLV      4447            0.0000000000
     13454      4458  TIP3      H1            -24.5552103985      -21.2790657466       13.5539853365  SOLV      4447            0.0000000000
     13455      4458  TIP3      H2            -24.0997103985      -21.3594357466       14.9954953365  SOLV      4447            0.0000000000
     13456      4459  TIP3      OH2           -24.8070703985      -30.0879257466        9.6199153365  SOLV      4448            0.0000000000
     13457      4459  TIP3      H1            -24.1651903985      -29.6312957466        9.0761353365  SOLV      4448            0.0000000000
     13458      4459  TIP3      H2            -25.6373803985      -29.9746857466        9.1573253365  SOLV      4448            0.0000000000
     13459      4460  TIP3      OH2           -30.4377503985      -29.0364157466       12.0700653365  SOLV      4449            0.0000000000
     13460      4460  TIP3      H1            -30.7831403985      -29.4181757466       12.8770253365  SOLV      4449            0.0000000000
     13461      4460  TIP3      H2            -30.6377403985      -28.1030557466       12.1413553365  SOLV      4449            0.0000000000
     13462      4461  TIP3      OH2           -27.3409303985      -34.5394857466        0.6931553365  SOLV      4450            0.0000000000
     13463      4461  TIP3      H1            -26.4490303985      -34.6769857466        1.0122753365  SOLV      4450            0.0000000000
     13464      4461  TIP3      H2            -27.2845703985      -33.7488757466        0.1565053365  SOLV      4450            0.0000000000
     13465      4462  TIP3      OH2           -29.8315503985      -27.7623157466       -0.1413846635  SOLV      4451            0.0000000000
     13466      4462  TIP3      H1            -30.1267103985      -26.9355257466        0.2400953365  SOLV      4451            0.0000000000
     13467      4462  TIP3      H2            -30.5345503985      -28.3816257466        0.0547553365  SOLV      4451            0.0000000000
     13468      4463  TIP3      OH2           -28.1873903985      -26.5748657466       12.0205653365  SOLV      4452            0.0000000000
     13469      4463  TIP3      H1            -29.0879603985      -26.3916057466       11.7529553365  SOLV      4452            0.0000000000
     13470      4463  TIP3      H2            -28.1532803985      -26.3159357466       12.9414453365  SOLV      4452            0.0000000000
     13471      4464  TIP3      OH2           -22.4560603985      -34.3300757466        0.3878253365  SOLV      4453            0.0000000000
     13472      4464  TIP3      H1            -23.0104303985      -34.7262757466       -0.2844246635  SOLV      4453            0.0000000000
     13473      4464  TIP3      H2            -22.3557003985      -33.4195557466        0.1101553365  SOLV      4453            0.0000000000
     13474      4465  TIP3      OH2           -22.4928603985      -28.5299057466       13.2249753365  SOLV      4454            0.0000000000
     13475      4465  TIP3      H1            -23.3440103985      -28.2915257466       12.8576153365  SOLV      4454            0.0000000000
     13476      4465  TIP3      H2            -21.9025203985      -28.5465857466       12.4716853365  SOLV      4454            0.0000000000
     13477      4466  TIP3      OH2           -24.1608903985      -25.5440357466        0.8530353365  SOLV      4455            0.0000000000
     13478      4466  TIP3      H1            -24.5337803985      -26.3696557466        1.1620953365  SOLV      4455            0.0000000000
     13479      4466  TIP3      H2            -23.8835403985      -25.7270957466       -0.0446246635  SOLV      4455            0.0000000000
     13480      4467  TIP3      OH2           -27.0005003985      -30.7360857466        7.8742253365  SOLV      4456            0.0000000000
     13481      4467  TIP3      H1            -27.9288103985      -30.9678957466        7.8471553365  SOLV      4456            0.0000000000
     13482      4467  TIP3      H2            -26.5493903985      -31.5131057466        7.5441053365  SOLV      4456            0.0000000000
     13483      4468  TIP3      OH2           -32.5153003985      -24.5955757466        9.8986353365  SOLV      4457            0.0000000000
     13484      4468  TIP3      H1            -32.1528303985      -23.7410157466        9.6650753365  SOLV      4457            0.0000000000
     13485      4468  TIP3      H2            -31.9837803985      -24.8874157466       10.6392653365  SOLV      4457            0.0000000000
     13486      4469  TIP3      OH2           -34.3468803985      -23.7231757466        3.1287453365  SOLV      4458            0.0000000000
     13487      4469  TIP3      H1            -35.2968303985      -23.6174357466        3.1800753365  SOLV      4458            0.0000000000
     13488      4469  TIP3      H2            -33.9950703985      -22.9024357466        3.4734953365  SOLV      4458            0.0000000000
     13489      4470  TIP3      OH2           -28.9712203985      -28.4965057466        9.5991953365  SOLV      4459            0.0000000000
     13490      4470  TIP3      H1            -29.3970903985      -28.7243357466       10.4255953365  SOLV      4459            0.0000000000
     13491      4470  TIP3      H2            -28.3906403985      -29.2353257466        9.4167253365  SOLV      4459            0.0000000000
     13492      4471  TIP3      OH2           -26.7683303985      -27.5674557466       -1.3269046635  SOLV      4460            0.0000000000
     13493      4471  TIP3      H1            -26.4150203985      -27.9474757466       -0.5225546635  SOLV      4460            0.0000000000
     13494      4471  TIP3      H2            -27.7169803985      -27.6609757466       -1.2399746635  SOLV      4460            0.0000000000
     13495      4472  TIP3      OH2           -26.3128003985      -23.9445557466       12.0686753365  SOLV      4461            0.0000000000
     13496      4472  TIP3      H1            -26.9144803985      -24.5002657466       11.5733053365  SOLV      4461            0.0000000000
     13497      4472  TIP3      H2            -26.0314303985      -23.2775757466       11.4424153365  SOLV      4461            0.0000000000
     13498      4473  TIP3      OH2           -22.2648903985      -23.0882057466       -1.1258846635  SOLV      4462            0.0000000000
     13499      4473  TIP3      H1            -21.5211003985      -22.5021557466       -1.2657246635  SOLV      4462            0.0000000000
     13500      4473  TIP3      H2            -22.9590803985      -22.5196257466       -0.7926446635  SOLV      4462            0.0000000000
     13501      4474  TIP3      OH2           -25.9024003985      -28.8952557466        0.8998853365  SOLV      4463            0.0000000000
     13502      4474  TIP3      H1            -26.1796403985      -29.6233257466        1.4559953365  SOLV      4463            0.0000000000
     13503      4474  TIP3      H2            -24.9751003985      -28.7760557466        1.1051453365  SOLV      4463            0.0000000000
     13504      4475  TIP3      OH2           -32.6775503985      -26.4558457466       -2.8799046635  SOLV      4464            0.0000000000
     13505      4475  TIP3      H1            -32.4385703985      -27.2040357466       -3.4270146635  SOLV      4464            0.0000000000
     13506      4475  TIP3      H2            -32.9464203985      -26.8436757466       -2.0471246635  SOLV      4464            0.0000000000
     13507      4476  TIP3      OH2           -31.0027703985      -25.1881057466        0.3257753365  SOLV      4465            0.0000000000
     13508      4476  TIP3      H1            -31.8191603985      -24.6911357466        0.3782053365  SOLV      4465            0.0000000000
     13509      4476  TIP3      H2            -30.4731403985      -24.7127557466       -0.3143446635  SOLV      4465            0.0000000000
     13510      4477  TIP3      OH2           -33.6644603985      -24.1443857466        0.3074653365  SOLV      4466            0.0000000000
     13511      4477  TIP3      H1            -33.5035903985      -23.3446357466       -0.1932746635  SOLV      4466            0.0000000000
     13512      4477  TIP3      H2            -33.8616803985      -23.8377857466        1.1925253365  SOLV      4466            0.0000000000
     13513      4478  TIP3      OH2           -24.7311703985      -36.6974057466       12.3174953365  SOLV      4467            0.0000000000
     13514      4478  TIP3      H1            -25.6475903985      -36.4352357466       12.2298653365  SOLV      4467            0.0000000000
     13515      4478  TIP3      H2            -24.3956703985      -36.7005057466       11.4210253365  SOLV      4467            0.0000000000
     13516      4479  TIP3      OH2           -26.1290703985      -32.9473057466        6.4132253365  SOLV      4468            0.0000000000
     13517      4479  TIP3      H1            -26.9266303985      -33.3622857466        6.0847253365  SOLV      4468            0.0000000000
     13518      4479  TIP3      H2            -25.6839603985      -33.6379357466        6.9042753365  SOLV      4468            0.0000000000
     13519      4480  TIP3      OH2           -25.0426103985      -23.6910557466        8.0355753365  SOLV      4469            0.0000000000
     13520      4480  TIP3      H1            -25.1981803985      -23.0126157466        7.3785053365  SOLV      4469            0.0000000000
     13521      4480  TIP3      H2            -24.1099703985      -23.6191257466        8.2386353365  SOLV      4469            0.0000000000
     13522      4481  TIP3      OH2           -30.6393703985      -24.5927057466       -2.7413046635  SOLV      4470            0.0000000000
     13523      4481  TIP3      H1            -31.2832703985      -25.2238457466       -2.4199346635  SOLV      4470            0.0000000000
     13524      4481  TIP3      H2            -29.8775403985      -25.1239057466       -2.9729546635  SOLV      4470            0.0000000000
     13525      4482  TIP3      OH2           -28.1544603985      -25.7206557466       14.6126653365  SOLV      4471            0.0000000000
     13526      4482  TIP3      H1            -28.5055103985      -26.5773557466       14.8557053365  SOLV      4471            0.0000000000
     13527      4482  TIP3      H2            -27.4281403985      -25.5779857466       15.2195653365  SOLV      4471            0.0000000000
     13528      4483  TIP3      OH2           -26.0350803985      -24.7757157466       -2.5075046635  SOLV      4472            0.0000000000
     13529      4483  TIP3      H1            -25.7520403985      -25.5701957466       -2.0548146635  SOLV      4472            0.0000000000
     13530      4483  TIP3      H2            -25.2952903985      -24.5426157466       -3.0683946635  SOLV      4472            0.0000000000
     13531      4484  TIP3      OH2           -29.7280103985      -27.8190557466       -2.9142146635  SOLV      4473            0.0000000000
     13532      4484  TIP3      H1            -29.9966003985      -27.6388457466       -2.0133246635  SOLV      4473            0.0000000000
     13533      4484  TIP3      H2            -29.9344503985      -28.7444357466       -3.0456346635  SOLV      4473            0.0000000000
     13534      4485  TIP3      OH2           -27.0315903985      -29.3242557466       12.0333953365  SOLV      4474            0.0000000000
     13535      4485  TIP3      H1            -26.2861103985      -28.7358857466       11.9137953365  SOLV      4474            0.0000000000
     13536      4485  TIP3      H2            -27.7889103985      -28.7422857466       12.0967053365  SOLV      4474            0.0000000000
     13537      4486  TIP3      OH2           -29.6222203985      -30.5293657466       15.2892253365  SOLV      4475            0.0000000000
     13538      4486  TIP3      H1            -28.6691003985      -30.4454557466       15.2618253365  SOLV      4475            0.0000000000
     13539      4486  TIP3      H2            -29.7827603985      -31.2411857466       15.9087153365  SOLV      4475            0.0000000000
     13540      4487  TIP3      OH2           -23.4701003985      -30.2960057466       -2.6360846635  SOLV      4476            0.0000000000
     13541      4487  TIP3      H1            -23.7436203985      -30.7204557466       -3.4492546635  SOLV      4476            0.0000000000
     13542      4487  TIP3      H2            -23.4306903985      -29.3645557466       -2.8530446635  SOLV      4476            0.0000000000
     13543      4488  TIP3      OH2           -26.5759203985      -31.2329157466       13.9321153365  SOLV      4477            0.0000000000
     13544      4488  TIP3      H1            -26.8574203985      -30.5234557466       13.3544953365  SOLV      4477            0.0000000000
     13545      4488  TIP3      H2            -25.6334903985      -31.3056157466       13.7812353365  SOLV      4477            0.0000000000
     13546      4489  TIP3      OH2           -32.9627603985      -21.9600557466       -1.0805346635  SOLV      4478            0.0000000000
     13547      4489  TIP3      H1            -32.0296903985      -21.8021857466       -0.9366946635  SOLV      4478            0.0000000000
     13548      4489  TIP3      H2            -33.2268803985      -21.2847557466       -1.7053846635  SOLV      4478            0.0000000000
     13549      4490  TIP3      OH2           -22.3268103985      -23.0404857466        8.2647653365  SOLV      4479            0.0000000000
     13550      4490  TIP3      H1            -22.3481403985      -22.8556457466        9.2037053365  SOLV      4479            0.0000000000
     13551      4490  TIP3      H2            -21.6361903985      -22.4720857466        7.9239053365  SOLV      4479            0.0000000000
     13552      4491  TIP3      OH2           -22.7635203985      -23.4733757466       11.1866753365  SOLV      4480            0.0000000000
     13553      4491  TIP3      H1            -23.2506503985      -24.2089657466       10.8154153365  SOLV      4480            0.0000000000
     13554      4491  TIP3      H2            -22.2142503985      -23.8669857466       11.8646153365  SOLV      4480            0.0000000000
     13555      4492  TIP3      OH2           -24.3127903985      -27.6835657466       15.8247053365  SOLV      4481            0.0000000000
     13556      4492  TIP3      H1            -25.1786803985      -27.7885957466       16.2189353365  SOLV      4481            0.0000000000
     13557      4492  TIP3      H2            -23.9362003985      -26.9252357466       16.2711753365  SOLV      4481            0.0000000000
     13558      4493  TIP3      OH2           -23.0118203985      -29.4271957466        1.3389553365  SOLV      4482            0.0000000000
     13559      4493  TIP3      H1            -22.1616803985      -29.0061057466        1.4661153365  SOLV      4482            0.0000000000
     13560      4493  TIP3      H2            -23.0063103985      -30.1671857466        1.9460953365  SOLV      4482            0.0000000000
     13561      4494  TIP3      OH2           -22.6172603985      -31.3734557466        3.1625253365  SOLV      4483            0.0000000000
     13562      4494  TIP3      H1            -23.3438003985      -31.8531957466        3.5602853365  SOLV      4483            0.0000000000
     13563      4494  TIP3      H2            -22.0359303985      -31.1679857466        3.8946853365  SOLV      4483            0.0000000000
     13564      4495  TIP3      OH2           -22.8581403985      -28.5887057466        8.1102853365  SOLV      4484            0.0000000000
     13565      4495  TIP3      H1            -22.0247203985      -28.9667057466        7.8296453365  SOLV      4484            0.0000000000
     13566      4495  TIP3      H2            -22.7461103985      -27.6455857466        7.9911953365  SOLV      4484            0.0000000000
     13567      4496  TIP3      OH2           -24.3719103985      -25.7109557466       10.4171253365  SOLV      4485            0.0000000000
     13568      4496  TIP3      H1            -25.0193803985      -25.3858057466       11.0426453365  SOLV      4485            0.0000000000
     13569      4496  TIP3      H2            -24.8895103985      -26.1511857466        9.7429553365  SOLV      4485            0.0000000000
     13570      4497  TIP3      OH2           -22.3489503985      -31.4726057466       -0.4463446635  SOLV      4486            0.0000000000
     13571      4497  TIP3      H1            -22.8708403985      -31.1161957466       -1.1652546635  SOLV      4486            0.0000000000
     13572      4497  TIP3      H2            -22.3820303985      -30.7978257466        0.2317453365  SOLV      4486            0.0000000000
     13573      4498  TIP3      OH2           -24.0000503985      -34.2330457466       -1.8956346635  SOLV      4487            0.0000000000
     13574      4498  TIP3      H1            -23.9036103985      -33.5663457466       -2.5756646635  SOLV      4487            0.0000000000
     13575      4498  TIP3      H2            -24.1400903985      -35.0484157466       -2.3770846635  SOLV      4487            0.0000000000
     13576      4499  TIP3      OH2           -24.8305803985      -32.8528057466        3.7253953365  SOLV      4488            0.0000000000
     13577      4499  TIP3      H1            -24.9807003985      -33.7979457466        3.7051753365  SOLV      4488            0.0000000000
     13578      4499  TIP3      H2            -25.1841303985      -32.5716657466        4.5693053365  SOLV      4488            0.0000000000
     13579      4500  TIP3      OH2           -23.9742903985      -30.8824757466       13.3642253365  SOLV      4489            0.0000000000
     13580      4500  TIP3      H1            -23.3915603985      -31.6172457466       13.5559453365  SOLV      4489            0.0000000000
     13581      4500  TIP3      H2            -23.4103603985      -30.1104457466       13.4108053365  SOLV      4489            0.0000000000
     13582      4501  TIP3      OH2           -22.4775803985      -32.9798957466       14.0487653365  SOLV      4490            0.0000000000
     13583      4501  TIP3      H1            -23.3409103985      -33.3586857466       13.8832353365  SOLV      4490            0.0000000000
     13584      4501  TIP3      H2            -21.8732103985      -33.7184157466       13.9743453365  SOLV      4490            0.0000000000
     13585      4502  TIP3      OH2           -25.1201003985      -35.2702257466        2.1879053365  SOLV      4491            0.0000000000
     13586      4502  TIP3      H1            -24.8403903985      -36.1771857466        2.3120753365  SOLV      4491            0.0000000000
     13587      4502  TIP3      H2            -24.3609303985      -34.8360757466        1.7988253365  SOLV      4491            0.0000000000
     13588      4503  TIP3      OH2           -24.5082703985      -34.6884857466        7.6237953365  SOLV      4492            0.0000000000
     13589      4503  TIP3      H1            -23.5754703985      -34.4764957466        7.5893953365  SOLV      4492            0.0000000000
     13590      4503  TIP3      H2            -24.7435203985      -34.5872757466        8.5460953365  SOLV      4492            0.0000000000
     13591      4504  TIP3      OH2           -24.4790803985      -33.9519557466       10.3997353365  SOLV      4493            0.0000000000
     13592      4504  TIP3      H1            -25.3219503985      -33.6839157466       10.7657153365  SOLV      4493            0.0000000000
     13593      4504  TIP3      H2            -24.0366503985      -33.1297657466       10.1888453365  SOLV      4493            0.0000000000
     13594      4505  TIP3      OH2           -25.5882103985      -22.9505457466        3.8369453365  SOLV      4494            0.0000000000
     13595      4505  TIP3      H1            -24.9359203985      -23.2983357466        3.2288553365  SOLV      4494            0.0000000000
     13596      4505  TIP3      H2            -25.0778303985      -22.4622257466        4.4829153365  SOLV      4494            0.0000000000
     13597      4506  TIP3      OH2           -30.9380303985      -23.6482857466       13.5978053365  SOLV      4495            0.0000000000
     13598      4506  TIP3      H1            -30.7532803985      -23.9816757466       14.4758353365  SOLV      4495            0.0000000000
     13599      4506  TIP3      H2            -30.0915803985      -23.3384257466       13.2757253365  SOLV      4495            0.0000000000
     13600      4507  TIP3      OH2           -28.5929903985      -22.3623957466       12.8419453365  SOLV      4496            0.0000000000
     13601      4507  TIP3      H1            -27.9161003985      -22.9951657466       12.6018653365  SOLV      4496            0.0000000000
     13602      4507  TIP3      H2            -28.2711103985      -21.9613457466       13.6492753365  SOLV      4496            0.0000000000
     13603      4508  TIP3      OH2           -35.3802403985      -22.1905057466        9.7156853365  SOLV      4497            0.0000000000
     13604      4508  TIP3      H1            -36.2450203985      -22.1186557466       10.1196953365  SOLV      4497            0.0000000000
     13605      4508  TIP3      H2            -35.4353403985      -21.6437757466        8.9319353365  SOLV      4497            0.0000000000
     13606      4509  TIP3      OH2           -30.6696803985      -22.3026157466        8.8912853365  SOLV      4498            0.0000000000
     13607      4509  TIP3      H1            -31.1262803985      -21.7736457466        8.2371253365  SOLV      4498            0.0000000000
     13608      4509  TIP3      H2            -30.5068803985      -21.6994757466        9.6165153365  SOLV      4498            0.0000000000
     13609      4510  TIP3      OH2           -28.3420503985      -23.4246557466        9.8363153365  SOLV      4499            0.0000000000
     13610      4510  TIP3      H1            -29.2466803985      -23.2596357466        9.5705253365  SOLV      4499            0.0000000000
     13611      4510  TIP3      H2            -27.9131903985      -22.5714357466        9.7706553365  SOLV      4499            0.0000000000
     13612      4511  TIP3      OH2           -25.7378603985      -21.8547457466       10.1310953365  SOLV      4500            0.0000000000
     13613      4511  TIP3      H1            -25.9196603985      -20.9388557466        9.9205853365  SOLV      4500            0.0000000000
     13614      4511  TIP3      H2            -25.5610803985      -22.2650357466        9.2845553365  SOLV      4500            0.0000000000
     13615      4512  TIP3      OH2           -33.7541303985      -23.9878457466        7.0999353365  SOLV      4501            0.0000000000
     13616      4512  TIP3      H1            -33.5415603985      -24.8759457466        6.8130253365  SOLV      4501            0.0000000000
     13617      4512  TIP3      H2            -33.6896203985      -24.0220757466        8.0543353365  SOLV      4501            0.0000000000
     13618      4513  TIP3      OH2           -30.3173703985      -22.7342357466       -0.8350046635  SOLV      4502            0.0000000000
     13619      4513  TIP3      H1            -29.4513503985      -22.3674957466       -1.0131846635  SOLV      4502            0.0000000000
     13620      4513  TIP3      H2            -30.5640903985      -23.1734357466       -1.6489246635  SOLV      4502            0.0000000000
     13621      4514  TIP3      OH2           -23.6084103985      -23.1712057466        1.8441053365  SOLV      4503            0.0000000000
     13622      4514  TIP3      H1            -23.8027003985      -23.9189957466        1.2790653365  SOLV      4503            0.0000000000
     13623      4514  TIP3      H2            -23.6474003985      -22.4131957466        1.2608953365  SOLV      4503            0.0000000000
     13624      4515  TIP3      OH2           -24.3907903985      -24.4199657466       13.9942853365  SOLV      4504            0.0000000000
     13625      4515  TIP3      H1            -25.1726003985      -24.6061657466       13.4743453365  SOLV      4504            0.0000000000
     13626      4515  TIP3      H2            -24.4628003985      -23.4905357466       14.2115353365  SOLV      4504            0.0000000000
     13627      4516  TIP3      OH2            -9.9847503985      -30.5335257466        4.0250053365  SOLV      4505            0.0000000000
     13628      4516  TIP3      H1             -9.8956403985      -29.5897057466        3.8927153365  SOLV      4505            0.0000000000
     13629      4516  TIP3      H2            -10.6229903985      -30.8088857466        3.3669453365  SOLV      4505            0.0000000000
     13630      4517  TIP3      OH2           -11.0516203985      -31.2784557466        7.4438253365  SOLV      4506            0.0000000000
     13631      4517  TIP3      H1            -11.0898703985      -31.9248257466        8.1487853365  SOLV      4506            0.0000000000
     13632      4517  TIP3      H2            -11.3739703985      -31.7450157466        6.6726953365  SOLV      4506            0.0000000000
     13633      4518  TIP3      OH2           -18.6831203985      -31.6642457466        9.0368153365  SOLV      4507            0.0000000000
     13634      4518  TIP3      H1            -18.6419103985      -32.2899157466        9.7600553365  SOLV      4507            0.0000000000
     13635      4518  TIP3      H2            -17.9803503985      -31.0403857466        9.2188553365  SOLV      4507            0.0000000000
     13636      4519  TIP3      OH2            -7.3456003985      -28.3394157466        5.7453353365  SOLV      4508            0.0000000000
     13637      4519  TIP3      H1             -7.7863303985      -29.0598157466        6.1958953365  SOLV      4508            0.0000000000
     13638      4519  TIP3      H2             -7.3586303985      -27.6186957466        6.3751053365  SOLV      4508            0.0000000000
     13639      4520  TIP3      OH2           -17.7598103985      -27.2143557466        7.5717253365  SOLV      4509            0.0000000000
     13640      4520  TIP3      H1            -18.1292903985      -28.0163057466        7.2021553365  SOLV      4509            0.0000000000
     13641      4520  TIP3      H2            -16.8187003985      -27.3828657466        7.6180653365  SOLV      4509            0.0000000000
     13642      4521  TIP3      OH2           -21.1497603985      -33.5540957466        2.9646053365  SOLV      4510            0.0000000000
     13643      4521  TIP3      H1            -21.5974203985      -32.7082257466        2.9462553365  SOLV      4510            0.0000000000
     13644      4521  TIP3      H2            -21.7106403985      -34.1336757466        2.4491153365  SOLV      4510            0.0000000000
     13645      4522  TIP3      OH2           -20.4391503985      -31.3921357466        5.0904053365  SOLV      4511            0.0000000000
     13646      4522  TIP3      H1            -20.2258003985      -32.1619757466        5.6177053365  SOLV      4511            0.0000000000
     13647      4522  TIP3      H2            -19.7013903985      -31.3024657466        4.4871653365  SOLV      4511            0.0000000000
     13648      4523  TIP3      OH2           -10.2340503985      -23.2352457466        5.9573753365  SOLV      4512            0.0000000000
     13649      4523  TIP3      H1             -9.6144103985      -23.9117757466        5.6842953365  SOLV      4512            0.0000000000
     13650      4523  TIP3      H2            -10.4423103985      -23.4531657466        6.8658653365  SOLV      4512            0.0000000000
     13651      4524  TIP3      OH2           -12.6621803985      -28.8463157466        7.8499253365  SOLV      4513            0.0000000000
     13652      4524  TIP3      H1            -12.3583903985      -29.5321757466        7.2553353365  SOLV      4513            0.0000000000
     13653      4524  TIP3      H2            -11.9407803985      -28.7274457466        8.4677253365  SOLV      4513            0.0000000000
     13654      4525  TIP3      OH2            -3.9992003985      -37.2447857466        8.7105453365  SOLV      4514            0.0000000000
     13655      4525  TIP3      H1             -3.9499803985      -36.6346657466        9.4464553365  SOLV      4514            0.0000000000
     13656      4525  TIP3      H2             -3.5736903985      -36.7836957466        7.9876553365  SOLV      4514            0.0000000000
     13657      4526  TIP3      OH2            -9.5214803985      -34.4520757466        8.1774053365  SOLV      4515            0.0000000000
     13658      4526  TIP3      H1             -9.3788903985      -35.3983757466        8.1975653365  SOLV      4515            0.0000000000
     13659      4526  TIP3      H2             -9.6275803985      -34.2450957466        7.2488953365  SOLV      4515            0.0000000000
     13660      4527  TIP3      OH2           -16.3666503985      -36.3504357466        5.4498853365  SOLV      4516            0.0000000000
     13661      4527  TIP3      H1            -16.3235403985      -35.4905857466        5.0315153365  SOLV      4516            0.0000000000
     13662      4527  TIP3      H2            -16.8242403985      -36.9029657466        4.8162053365  SOLV      4516            0.0000000000
     13663      4528  TIP3      OH2            -8.6443803985      -36.2198757466        3.8507153365  SOLV      4517            0.0000000000
     13664      4528  TIP3      H1             -7.9979503985      -36.5485557466        4.4754753365  SOLV      4517            0.0000000000
     13665      4528  TIP3      H2             -8.1344403985      -35.7019757466        3.2278553365  SOLV      4517            0.0000000000
     13666      4529  TIP3      OH2           -19.7465003985      -33.9538557466        6.2120253365  SOLV      4518            0.0000000000
     13667      4529  TIP3      H1            -19.0928403985      -34.5036857466        6.6440353365  SOLV      4518            0.0000000000
     13668      4529  TIP3      H2            -19.7225703985      -34.2279557466        5.2952253365  SOLV      4518            0.0000000000
     13669      4530  TIP3      OH2           -14.5900503985      -32.4037257466        5.4271753365  SOLV      4519            0.0000000000
     13670      4530  TIP3      H1            -13.9739503985      -32.9301857466        5.9365753365  SOLV      4519            0.0000000000
     13671      4530  TIP3      H2            -15.1761703985      -33.0438557466        5.0235353365  SOLV      4519            0.0000000000
     13672      4531  TIP3      OH2            -3.6077403985      -35.7668657466       10.9465253365  SOLV      4520            0.0000000000
     13673      4531  TIP3      H1             -4.2962803985      -35.1087957466       10.8511853365  SOLV      4520            0.0000000000
     13674      4531  TIP3      H2             -3.5922803985      -35.9640757466       11.8830653365  SOLV      4520            0.0000000000
     13675      4532  TIP3      OH2           -10.1874803985      -27.9324857466        3.0678753365  SOLV      4521            0.0000000000
     13676      4532  TIP3      H1            -10.4829703985      -28.2552557466        2.2165653365  SOLV      4521            0.0000000000
     13677      4532  TIP3      H2            -10.5117003985      -27.0328157466        3.1091353365  SOLV      4521            0.0000000000
     13678      4533  TIP3      OH2           -14.9873203985      -29.7570257466        9.8113353365  SOLV      4522            0.0000000000
     13679      4533  TIP3      H1            -15.7274103985      -29.1588757466        9.9148553365  SOLV      4522            0.0000000000
     13680      4533  TIP3      H2            -14.2733703985      -29.2030657466        9.4956953365  SOLV      4522            0.0000000000
     13681      4534  TIP3      OH2           -17.9627303985      -35.5404157466        7.4761853365  SOLV      4523            0.0000000000
     13682      4534  TIP3      H1            -17.3491003985      -34.9076557466        7.8494253365  SOLV      4523            0.0000000000
     13683      4534  TIP3      H2            -17.4506603985      -36.0129157466        6.8198753365  SOLV      4523            0.0000000000
     13684      4535  TIP3      OH2           -16.5798903985      -27.7927257466       10.5984853365  SOLV      4524            0.0000000000
     13685      4535  TIP3      H1            -16.5851303985      -26.9133757466       10.2204153365  SOLV      4524            0.0000000000
     13686      4535  TIP3      H2            -17.4334803985      -27.8763157466       11.0234753365  SOLV      4524            0.0000000000
     13687      4536  TIP3      OH2           -20.4588003985      -28.1219357466        1.3804153365  SOLV      4525            0.0000000000
     13688      4536  TIP3      H1            -20.7307103985      -27.8928357466        0.4917053365  SOLV      4525            0.0000000000
     13689      4536  TIP3      H2            -20.4132303985      -27.2840557466        1.8409453365  SOLV      4525            0.0000000000
     13690      4537  TIP3      OH2            -6.8338303985      -26.5003457466        8.0932653365  SOLV      4526            0.0000000000
     13691      4537  TIP3      H1             -7.7754603985      -26.4419557466        8.2549553365  SOLV      4526            0.0000000000
     13692      4537  TIP3      H2             -6.5572203985      -25.5942957466        7.9562353365  SOLV      4526            0.0000000000
     13693      4538  TIP3      OH2            -8.5817103985      -24.7189957466        4.7184253365  SOLV      4527            0.0000000000
     13694      4538  TIP3      H1             -8.1564803985      -25.4262057466        4.2333853365  SOLV      4527            0.0000000000
     13695      4538  TIP3      H2             -8.2647103985      -23.9177257466        4.3016453365  SOLV      4527            0.0000000000
     13696      4539  TIP3      OH2            -7.4220603985      -26.8181457466        3.2270853365  SOLV      4528            0.0000000000
     13697      4539  TIP3      H1             -7.6795803985      -27.5081357466        2.6156753365  SOLV      4528            0.0000000000
     13698      4539  TIP3      H2             -7.3509803985      -27.2610257466        4.0726753365  SOLV      4528            0.0000000000
     13699      4540  TIP3      OH2            -5.7360403985      -28.2514757466       11.7044353365  SOLV      4529            0.0000000000
     13700      4540  TIP3      H1             -5.5964103985      -28.8432257466       10.9651353365  SOLV      4529            0.0000000000
     13701      4540  TIP3      H2             -5.5687603985      -27.3788857466       11.3483153365  SOLV      4529            0.0000000000
     13702      4541  TIP3      OH2           -11.2635003985      -31.2895257466        1.4770353365  SOLV      4530            0.0000000000
     13703      4541  TIP3      H1            -11.9749503985      -30.7545557466        1.1250853365  SOLV      4530            0.0000000000
     13704      4541  TIP3      H2            -10.5725403985      -31.2343157466        0.8169253365  SOLV      4530            0.0000000000
     13705      4542  TIP3      OH2           -11.2095803985      -32.8320957466       -1.4844646635  SOLV      4531            0.0000000000
     13706      4542  TIP3      H1            -10.5085903985      -32.8094057466       -0.8330646635  SOLV      4531            0.0000000000
     13707      4542  TIP3      H2            -10.9072903985      -33.4601257466       -2.1405346635  SOLV      4531            0.0000000000
     13708      4543  TIP3      OH2            -3.8941103985      -31.9116757466        9.7704753365  SOLV      4532            0.0000000000
     13709      4543  TIP3      H1             -4.5467003985      -31.2171157466        9.8595653365  SOLV      4532            0.0000000000
     13710      4543  TIP3      H2             -3.4290803985      -31.7015857466        8.9606353365  SOLV      4532            0.0000000000
     13711      4544  TIP3      OH2            -7.8577303985      -31.0801957466        2.4286253365  SOLV      4533            0.0000000000
     13712      4544  TIP3      H1             -8.5896303985      -30.8518257466        3.0016853365  SOLV      4533            0.0000000000
     13713      4544  TIP3      H2             -7.4105103985      -31.7939257466        2.8833753365  SOLV      4533            0.0000000000
     13714      4545  TIP3      OH2            -7.9603803985      -32.9059357466       11.4963253365  SOLV      4534            0.0000000000
     13715      4545  TIP3      H1             -7.8804703985      -32.1424957466       12.0681753365  SOLV      4534            0.0000000000
     13716      4545  TIP3      H2             -8.5616103985      -32.6266957466       10.8058353365  SOLV      4534            0.0000000000
     13717      4546  TIP3      OH2           -16.2123603985      -30.4495757466        4.3111253365  SOLV      4535            0.0000000000
     13718      4546  TIP3      H1            -16.5428403985      -30.8202357466        3.4928253365  SOLV      4535            0.0000000000
     13719      4546  TIP3      H2            -15.6239503985      -31.1201757466        4.6579553365  SOLV      4535            0.0000000000
     13720      4547  TIP3      OH2           -14.8456103985      -27.0215157466        6.9923453365  SOLV      4536            0.0000000000
     13721      4547  TIP3      H1            -14.9404803985      -27.6002057466        6.2358053365  SOLV      4536            0.0000000000
     13722      4547  TIP3      H2            -14.1162503985      -27.3929457466        7.4886253365  SOLV      4536            0.0000000000
     13723      4548  TIP3      OH2           -15.8458103985      -31.6810157466        7.9446253365  SOLV      4537            0.0000000000
     13724      4548  TIP3      H1            -15.2805603985      -31.5595957466        7.1817453365  SOLV      4537            0.0000000000
     13725      4548  TIP3      H2            -15.5269203985      -31.0435157466        8.5834753365  SOLV      4537            0.0000000000
     13726      4549  TIP3      OH2            -9.5365903985      -26.1778257466        8.6786753365  SOLV      4538            0.0000000000
     13727      4549  TIP3      H1             -9.7769303985      -25.5155157466        9.3265953365  SOLV      4538            0.0000000000
     13728      4549  TIP3      H2             -9.7347703985      -27.0123057466        9.1036353365  SOLV      4538            0.0000000000
     13729      4550  TIP3      OH2           -14.9657403985      -27.2817457466       12.6618153365  SOLV      4539            0.0000000000
     13730      4550  TIP3      H1            -15.2769903985      -26.4994257466       13.1171353365  SOLV      4539            0.0000000000
     13731      4550  TIP3      H2            -15.6157203985      -27.4348357466       11.9760153365  SOLV      4539            0.0000000000
     13732      4551  TIP3      OH2            -8.9867803985      -31.9179057466        0.1137453365  SOLV      4540            0.0000000000
     13733      4551  TIP3      H1             -8.4072303985      -31.7678757466        0.8606353365  SOLV      4540            0.0000000000
     13734      4551  TIP3      H2             -8.5727803985      -31.4471657466       -0.6096146635  SOLV      4540            0.0000000000
     13735      4552  TIP3      OH2           -18.0457503985      -31.0836357466       11.8903853365  SOLV      4541            0.0000000000
     13736      4552  TIP3      H1            -17.9754303985      -30.4329557466       12.5888853365  SOLV      4541            0.0000000000
     13737      4552  TIP3      H2            -18.9365303985      -30.9808857466       11.5554753365  SOLV      4541            0.0000000000
     13738      4553  TIP3      OH2           -11.2602903985      -25.1810557466        3.5490553365  SOLV      4542            0.0000000000
     13739      4553  TIP3      H1            -10.7865303985      -24.8854257466        4.3264753365  SOLV      4542            0.0000000000
     13740      4553  TIP3      H2            -11.8233603985      -24.4428957466        3.3160153365  SOLV      4542            0.0000000000
     13741      4554  TIP3      OH2           -16.7261503985      -25.2102457466       13.4251953365  SOLV      4543            0.0000000000
     13742      4554  TIP3      H1            -16.7186203985      -25.3462757466       12.4777453365  SOLV      4543            0.0000000000
     13743      4554  TIP3      H2            -17.6421103985      -25.3274357466       13.6771953365  SOLV      4543            0.0000000000
     13744      4555  TIP3      OH2           -17.2220903985      -31.3801457466        1.9004053365  SOLV      4544            0.0000000000
     13745      4555  TIP3      H1            -17.5139603985      -30.6119757466        1.4095353365  SOLV      4544            0.0000000000
     13746      4555  TIP3      H2            -17.8965703985      -32.0395257466        1.7375453365  SOLV      4544            0.0000000000
     13747      4556  TIP3      OH2            -4.0988003985      -25.8016257466       -1.6968946635  SOLV      4545            0.0000000000
     13748      4556  TIP3      H1             -4.0254503985      -24.8626057466       -1.5263646635  SOLV      4545            0.0000000000
     13749      4556  TIP3      H2             -3.1932903985      -26.1067657466       -1.7531646635  SOLV      4545            0.0000000000
     13750      4557  TIP3      OH2           -21.1290803985      -29.0172257466       10.7153853365  SOLV      4546            0.0000000000
     13751      4557  TIP3      H1            -21.6302403985      -29.0452857466        9.9003553365  SOLV      4546            0.0000000000
     13752      4557  TIP3      H2            -21.1237103985      -29.9229057466       11.0251153365  SOLV      4546            0.0000000000
     13753      4558  TIP3      OH2           -21.3788103985      -26.2368457466        7.5994053365  SOLV      4547            0.0000000000
     13754      4558  TIP3      H1            -20.4327503985      -26.3811457466        7.5803553365  SOLV      4547            0.0000000000
     13755      4558  TIP3      H2            -21.4911803985      -25.4525657466        8.1365253365  SOLV      4547            0.0000000000
     13756      4559  TIP3      OH2            -3.1809603985      -25.5708757466       13.2817753365  SOLV      4548            0.0000000000
     13757      4559  TIP3      H1             -3.2302803985      -26.5260657466       13.2445353365  SOLV      4548            0.0000000000
     13758      4559  TIP3      H2             -4.0077303985      -25.3033457466       13.6831553365  SOLV      4548            0.0000000000
     13759      4560  TIP3      OH2           -12.2025603985      -25.9969557466       12.1579153365  SOLV      4549            0.0000000000
     13760      4560  TIP3      H1            -12.1151003985      -25.1704957466       12.6328253365  SOLV      4549            0.0000000000
     13761      4560  TIP3      H2            -13.0660503985      -26.3265757466       12.4068453365  SOLV      4549            0.0000000000
     13762      4561  TIP3      OH2           -11.7879803985      -22.2245857466        1.9639753365  SOLV      4550            0.0000000000
     13763      4561  TIP3      H1            -11.8633803985      -22.3458657466        1.0174953365  SOLV      4550            0.0000000000
     13764      4561  TIP3      H2            -11.7551103985      -21.2753157466        2.0824353365  SOLV      4550            0.0000000000
     13765      4562  TIP3      OH2           -18.1346003985      -23.4358857466        3.7448753365  SOLV      4551            0.0000000000
     13766      4562  TIP3      H1            -17.9825603985      -23.7838457466        4.6235253365  SOLV      4551            0.0000000000
     13767      4562  TIP3      H2            -18.9855603985      -23.7921557466        3.4895953365  SOLV      4551            0.0000000000
     13768      4563  TIP3      OH2            -8.6863803985      -23.0705657466       -1.0337846635  SOLV      4552            0.0000000000
     13769      4563  TIP3      H1             -8.3115403985      -23.8149557466       -1.5045246635  SOLV      4552            0.0000000000
     13770      4563  TIP3      H2             -8.6820103985      -23.3405057466       -0.1154546635  SOLV      4552            0.0000000000
     13771      4564  TIP3      OH2            -9.0175703985      -23.1448557466        1.7154353365  SOLV      4553            0.0000000000
     13772      4564  TIP3      H1             -9.9525903985      -23.0446657466        1.8941353365  SOLV      4553            0.0000000000
     13773      4564  TIP3      H2             -8.7373803985      -23.8542557466        2.2937553365  SOLV      4553            0.0000000000
     13774      4565  TIP3      OH2            -6.0289803985      -34.0776257466       13.7619953365  SOLV      4554            0.0000000000
     13775      4565  TIP3      H1             -6.4363003985      -33.5970657466       13.0413253365  SOLV      4554            0.0000000000
     13776      4565  TIP3      H2             -5.9884103985      -34.9830257466       13.4540753365  SOLV      4554            0.0000000000
     13777      4566  TIP3      OH2           -18.8800303985      -27.6936857466       11.7586653365  SOLV      4555            0.0000000000
     13778      4566  TIP3      H1            -18.6639003985      -28.0551257466       12.6182453365  SOLV      4555            0.0000000000
     13779      4566  TIP3      H2            -19.7355603985      -28.0683057466       11.5490153365  SOLV      4555            0.0000000000
     13780      4567  TIP3      OH2            -8.2719603985      -35.7460757466       11.9822353365  SOLV      4556            0.0000000000
     13781      4567  TIP3      H1             -8.7860103985      -35.8718557466       12.7798353365  SOLV      4556            0.0000000000
     13782      4567  TIP3      H2             -8.4274903985      -34.8337657466       11.7378553365  SOLV      4556            0.0000000000
     13783      4568  TIP3      OH2            -7.5094703985      -30.8850757466       -2.2564646635  SOLV      4557            0.0000000000
     13784      4568  TIP3      H1             -7.4673903985      -31.1076857466       -3.1864646635  SOLV      4557            0.0000000000
     13785      4568  TIP3      H2             -6.6602603985      -30.4863657466       -2.0664746635  SOLV      4557            0.0000000000
     13786      4569  TIP3      OH2           -16.1702203985      -34.2581857466        8.8491053365  SOLV      4558            0.0000000000
     13787      4569  TIP3      H1            -16.8120103985      -34.2984557466        9.5581153365  SOLV      4558            0.0000000000
     13788      4569  TIP3      H2            -16.1330203985      -33.3317157466        8.6114053365  SOLV      4558            0.0000000000
     13789      4570  TIP3      OH2           -16.1733103985      -34.0371757466        3.7611053365  SOLV      4559            0.0000000000
     13790      4570  TIP3      H1            -17.0660203985      -34.3775657466        3.7024853365  SOLV      4559            0.0000000000
     13791      4570  TIP3      H2            -15.7226503985      -34.4140857466        3.0054253365  SOLV      4559            0.0000000000
     13792      4571  TIP3      OH2           -10.6377603985      -33.6211457466        2.5781853365  SOLV      4560            0.0000000000
     13793      4571  TIP3      H1            -11.0467303985      -32.8062857466        2.2866653365  SOLV      4560            0.0000000000
     13794      4571  TIP3      H2             -9.9171403985      -33.7611357466        1.9638953365  SOLV      4560            0.0000000000
     13795      4572  TIP3      OH2           -11.5356003985      -33.4455057466       14.0662553365  SOLV      4561            0.0000000000
     13796      4572  TIP3      H1            -12.0982203985      -34.1503457466       14.3870353365  SOLV      4561            0.0000000000
     13797      4572  TIP3      H2            -10.7092603985      -33.5663157466       14.5340153365  SOLV      4561            0.0000000000
     13798      4573  TIP3      OH2            -9.6329903985      -34.1751057466        5.3921553365  SOLV      4562            0.0000000000
     13799      4573  TIP3      H1             -9.8285403985      -33.5694257466        4.6772153365  SOLV      4562            0.0000000000
     13800      4573  TIP3      H2             -9.4517303985      -35.0085857466        4.9577853365  SOLV      4562            0.0000000000
     13801      4574  TIP3      OH2           -18.4201703985      -33.9378357466       10.7163053365  SOLV      4563            0.0000000000
     13802      4574  TIP3      H1            -18.4582303985      -33.5376757466       11.5850153365  SOLV      4563            0.0000000000
     13803      4574  TIP3      H2            -18.9110603985      -34.7545957466       10.8065953365  SOLV      4563            0.0000000000
     13804      4575  TIP3      OH2           -15.0544303985      -36.5636057466       -2.4850946635  SOLV      4564            0.0000000000
     13805      4575  TIP3      H1            -15.4853603985      -37.0085957466       -1.7553546635  SOLV      4564            0.0000000000
     13806      4575  TIP3      H2            -15.7725603985      -36.1919757466       -2.9973446635  SOLV      4564            0.0000000000
     13807      4576  TIP3      OH2           -20.5378803985      -36.0754557466       -0.0091846635  SOLV      4565            0.0000000000
     13808      4576  TIP3      H1            -20.0637103985      -35.4844657466       -0.5940946635  SOLV      4565            0.0000000000
     13809      4576  TIP3      H2            -21.2552403985      -35.5451657466        0.3378253365  SOLV      4565            0.0000000000
     13810      4577  TIP3      OH2           -10.3690703985      -32.5369757466       10.0633953365  SOLV      4566            0.0000000000
     13811      4577  TIP3      H1            -10.0455903985      -33.1680057466        9.4204453365  SOLV      4566            0.0000000000
     13812      4577  TIP3      H2            -10.8091403985      -33.0717557466       10.7241353365  SOLV      4566            0.0000000000
     13813      4578  TIP3      OH2           -13.5917803985      -36.6094257466        4.8475153365  SOLV      4567            0.0000000000
     13814      4578  TIP3      H1            -14.5026703985      -36.5527457466        5.1361153365  SOLV      4567            0.0000000000
     13815      4578  TIP3      H2            -13.0864903985      -36.6698757466        5.6582353365  SOLV      4567            0.0000000000
     13816      4579  TIP3      OH2           -18.7634403985      -34.9807957466        3.6742753365  SOLV      4568            0.0000000000
     13817      4579  TIP3      H1            -19.6526403985      -34.8812457466        3.3342353365  SOLV      4568            0.0000000000
     13818      4579  TIP3      H2            -18.4669503985      -35.8224957466        3.3280653365  SOLV      4568            0.0000000000
     13819      4580  TIP3      OH2           -15.1102603985      -34.9805357466        1.3307353365  SOLV      4569            0.0000000000
     13820      4580  TIP3      H1            -14.1787103985      -34.8515357466        1.5090453365  SOLV      4569            0.0000000000
     13821      4580  TIP3      H2            -15.3252303985      -34.3111057466        0.6812053365  SOLV      4569            0.0000000000
     13822      4581  TIP3      OH2           -16.4362403985      -33.7863157466       -1.1026546635  SOLV      4570            0.0000000000
     13823      4581  TIP3      H1            -16.9787303985      -34.1659357466       -1.7938946635  SOLV      4570            0.0000000000
     13824      4581  TIP3      H2            -15.6027503985      -33.5918457466       -1.5312446635  SOLV      4570            0.0000000000
     13825      4582  TIP3      OH2            -5.8990803985      -21.7032557466       14.3884553365  SOLV      4571            0.0000000000
     13826      4582  TIP3      H1             -5.6992103985      -21.2790657466       13.5539853365  SOLV      4571            0.0000000000
     13827      4582  TIP3      H2             -5.2437103985      -21.3594357466       14.9954953365  SOLV      4571            0.0000000000
     13828      4583  TIP3      OH2           -18.3011003985      -29.2291257466       13.9965053365  SOLV      4572            0.0000000000
     13829      4583  TIP3      H1            -17.5688603985      -28.9745357466       14.5579553365  SOLV      4572            0.0000000000
     13830      4583  TIP3      H2            -19.0812303985      -29.0245857466       14.5120453365  SOLV      4572            0.0000000000
     13831      4584  TIP3      OH2           -12.2718103985      -33.8221257466        6.7344753365  SOLV      4573            0.0000000000
     13832      4584  TIP3      H1            -11.7074703985      -34.3684657466        6.1874353365  SOLV      4573            0.0000000000
     13833      4584  TIP3      H2            -12.4194703985      -34.3439357466        7.5232353365  SOLV      4573            0.0000000000
     13834      4585  TIP3      OH2           -13.6452203985      -35.4335157466        9.1485153365  SOLV      4574            0.0000000000
     13835      4585  TIP3      H1            -14.4806903985      -34.9795657466        9.2587553365  SOLV      4574            0.0000000000
     13836      4585  TIP3      H2            -13.1211603985      -35.1576657466        9.9005053365  SOLV      4574            0.0000000000
     13837      4586  TIP3      OH2           -13.1009603985      -29.2207457466        0.8331553365  SOLV      4575            0.0000000000
     13838      4586  TIP3      H1            -13.8458603985      -29.7282157466        0.5109453365  SOLV      4575            0.0000000000
     13839      4586  TIP3      H2            -13.2352403985      -29.1719457466        1.7796353365  SOLV      4575            0.0000000000
     13840      4587  TIP3      OH2            -5.9510703985      -30.0879257466        9.6199153365  SOLV      4576            0.0000000000
     13841      4587  TIP3      H1             -5.3091903985      -29.6312957466        9.0761353365  SOLV      4576            0.0000000000
     13842      4587  TIP3      H2             -6.7813803985      -29.9746857466        9.1573253365  SOLV      4576            0.0000000000
     13843      4588  TIP3      OH2            -9.2032803985      -36.4067557466       -0.9675846635  SOLV      4577            0.0000000000
     13844      4588  TIP3      H1            -10.1418603985      -36.2951957466       -1.1187046635  SOLV      4577            0.0000000000
     13845      4588  TIP3      H2             -8.9060703985      -35.5500657466       -0.6610146635  SOLV      4577            0.0000000000
     13846      4589  TIP3      OH2           -11.5817503985      -29.0364157466       12.0700653365  SOLV      4578            0.0000000000
     13847      4589  TIP3      H1            -11.9271403985      -29.4181757466       12.8770253365  SOLV      4578            0.0000000000
     13848      4589  TIP3      H2            -11.7817403985      -28.1030557466       12.1413553365  SOLV      4578            0.0000000000
     13849      4590  TIP3      OH2            -8.4849303985      -34.5394857466        0.6931553365  SOLV      4579            0.0000000000
     13850      4590  TIP3      H1             -7.5930303985      -34.6769857466        1.0122753365  SOLV      4579            0.0000000000
     13851      4590  TIP3      H2             -8.4285703985      -33.7488757466        0.1565053365  SOLV      4579            0.0000000000
     13852      4591  TIP3      OH2           -17.9761303985      -29.9257457466        6.6029453365  SOLV      4580            0.0000000000
     13853      4591  TIP3      H1            -17.2314103985      -29.9281757466        6.0015953365  SOLV      4580            0.0000000000
     13854      4591  TIP3      H2            -17.8984703985      -30.7493657466        7.0844553365  SOLV      4580            0.0000000000
     13855      4592  TIP3      OH2           -10.9755503985      -27.7623157466       -0.1413846635  SOLV      4581            0.0000000000
     13856      4592  TIP3      H1            -11.2707103985      -26.9355257466        0.2400953365  SOLV      4581            0.0000000000
     13857      4592  TIP3      H2            -11.6785503985      -28.3816257466        0.0547553365  SOLV      4581            0.0000000000
     13858      4593  TIP3      OH2           -20.9681603985      -31.4650557466       11.9177953365  SOLV      4582            0.0000000000
     13859      4593  TIP3      H1            -20.7453003985      -31.8830957466       12.7495453365  SOLV      4582            0.0000000000
     13860      4593  TIP3      H2            -21.5701503985      -32.0775557466       11.4950753365  SOLV      4582            0.0000000000
     13861      4594  TIP3      OH2           -13.9516703985      -31.9480657466       14.1307653365  SOLV      4583            0.0000000000
     13862      4594  TIP3      H1            -14.2475903985      -32.1137657466       13.2356753365  SOLV      4583            0.0000000000
     13863      4594  TIP3      H2            -13.0201503985      -32.1680357466       14.1201553365  SOLV      4583            0.0000000000
     13864      4595  TIP3      OH2            -9.3313903985      -26.5748657466       12.0205653365  SOLV      4584            0.0000000000
     13865      4595  TIP3      H1            -10.2319603985      -26.3916057466       11.7529553365  SOLV      4584            0.0000000000
     13866      4595  TIP3      H2             -9.2972803985      -26.3159357466       12.9414453365  SOLV      4584            0.0000000000
     13867      4596  TIP3      OH2            -3.6000603985      -34.3300757466        0.3878253365  SOLV      4585            0.0000000000
     13868      4596  TIP3      H1             -4.1544303985      -34.7262757466       -0.2844246635  SOLV      4585            0.0000000000
     13869      4596  TIP3      H2             -3.4997003985      -33.4195557466        0.1101553365  SOLV      4585            0.0000000000
     13870      4597  TIP3      OH2            -3.6368603985      -28.5299057466       13.2249753365  SOLV      4586            0.0000000000
     13871      4597  TIP3      H1             -4.4880103985      -28.2915257466       12.8576153365  SOLV      4586            0.0000000000
     13872      4597  TIP3      H2             -3.0465203985      -28.5465857466       12.4716853365  SOLV      4586            0.0000000000
     13873      4598  TIP3      OH2            -5.3048903985      -25.5440357466        0.8530353365  SOLV      4587            0.0000000000
     13874      4598  TIP3      H1             -5.6777803985      -26.3696557466        1.1620953365  SOLV      4587            0.0000000000
     13875      4598  TIP3      H2             -5.0275403985      -25.7270957466       -0.0446246635  SOLV      4587            0.0000000000
     13876      4599  TIP3      OH2            -8.1445003985      -30.7360857466        7.8742253365  SOLV      4588            0.0000000000
     13877      4599  TIP3      H1             -9.0728103985      -30.9678957466        7.8471553365  SOLV      4588            0.0000000000
     13878      4599  TIP3      H2             -7.6933903985      -31.5131057466        7.5441053365  SOLV      4588            0.0000000000
     13879      4600  TIP3      OH2           -15.6011903985      -26.4079257466        4.0070953365  SOLV      4589            0.0000000000
     13880      4600  TIP3      H1            -15.0739703985      -25.6344857466        3.8069753365  SOLV      4589            0.0000000000
     13881      4600  TIP3      H2            -16.4813403985      -26.1830057466        3.7054953365  SOLV      4589            0.0000000000
     13882      4601  TIP3      OH2           -19.8464203985      -31.5455157466       -1.4056646635  SOLV      4590            0.0000000000
     13883      4601  TIP3      H1            -19.2304303985      -30.9187957466       -1.0261846635  SOLV      4590            0.0000000000
     13884      4601  TIP3      H2            -20.7081603985      -31.2295357466       -1.1340146635  SOLV      4590            0.0000000000
     13885      4602  TIP3      OH2           -14.1739603985      -28.7449357466        3.5835253365  SOLV      4591            0.0000000000
     13886      4602  TIP3      H1            -14.4149603985      -27.8194957466        3.6250553365  SOLV      4591            0.0000000000
     13887      4602  TIP3      H2            -14.9146003985      -29.2038057466        3.9799153365  SOLV      4591            0.0000000000
     13888      4603  TIP3      OH2           -13.6593003985      -24.5955757466        9.8986353365  SOLV      4592            0.0000000000
     13889      4603  TIP3      H1            -13.2968303985      -23.7410157466        9.6650753365  SOLV      4592            0.0000000000
     13890      4603  TIP3      H2            -13.1277803985      -24.8874157466       10.6392653365  SOLV      4592            0.0000000000
     13891      4604  TIP3      OH2           -15.4908803985      -23.7231757466        3.1287453365  SOLV      4593            0.0000000000
     13892      4604  TIP3      H1            -16.4408303985      -23.6174357466        3.1800753365  SOLV      4593            0.0000000000
     13893      4604  TIP3      H2            -15.1390703985      -22.9024357466        3.4734953365  SOLV      4593            0.0000000000
     13894      4605  TIP3      OH2           -10.1152203985      -28.4965057466        9.5991953365  SOLV      4594            0.0000000000
     13895      4605  TIP3      H1            -10.5410903985      -28.7243357466       10.4255953365  SOLV      4594            0.0000000000
     13896      4605  TIP3      H2             -9.5346403985      -29.2353257466        9.4167253365  SOLV      4594            0.0000000000
     13897      4606  TIP3      OH2            -7.9123303985      -27.5674557466       -1.3269046635  SOLV      4595            0.0000000000
     13898      4606  TIP3      H1             -7.5590203985      -27.9474757466       -0.5225546635  SOLV      4595            0.0000000000
     13899      4606  TIP3      H2             -8.8609803985      -27.6609757466       -1.2399746635  SOLV      4595            0.0000000000
     13900      4607  TIP3      OH2            -7.4568003985      -23.9445557466       12.0686753365  SOLV      4596            0.0000000000
     13901      4607  TIP3      H1             -8.0584803985      -24.5002657466       11.5733053365  SOLV      4596            0.0000000000
     13902      4607  TIP3      H2             -7.1754303985      -23.2775757466       11.4424153365  SOLV      4596            0.0000000000
     13903      4608  TIP3      OH2            -3.4088903985      -23.0882057466       -1.1258846635  SOLV      4597            0.0000000000
     13904      4608  TIP3      H1             -2.6651003985      -22.5021557466       -1.2657246635  SOLV      4597            0.0000000000
     13905      4608  TIP3      H2             -4.1030803985      -22.5196257466       -0.7926446635  SOLV      4597            0.0000000000
     13906      4609  TIP3      OH2           -19.3342103985      -36.7117857466       11.4759353365  SOLV      4598            0.0000000000
     13907      4609  TIP3      H1            -20.2269803985      -36.3732457466       11.4083353365  SOLV      4598            0.0000000000
     13908      4609  TIP3      H2            -19.4329303985      -37.5671757466       11.8940153365  SOLV      4598            0.0000000000
     13909      4610  TIP3      OH2            -7.0464003985      -28.8952557466        0.8998853365  SOLV      4599            0.0000000000
     13910      4610  TIP3      H1             -7.3236403985      -29.6233257466        1.4559953365  SOLV      4599            0.0000000000
     13911      4610  TIP3      H2             -6.1191003985      -28.7760557466        1.1051453365  SOLV      4599            0.0000000000
     13912      4611  TIP3      OH2           -19.6830103985      -24.9073457466        9.9108753365  SOLV      4600            0.0000000000
     13913      4611  TIP3      H1            -19.4659803985      -25.8391057466        9.8798453365  SOLV      4600            0.0000000000
     13914      4611  TIP3      H2            -19.4366603985      -24.6328457466       10.7941553365  SOLV      4600            0.0000000000
     13915      4612  TIP3      OH2           -13.8215503985      -26.4558457466       -2.8799046635  SOLV      4601            0.0000000000
     13916      4612  TIP3      H1            -13.5825703985      -27.2040357466       -3.4270146635  SOLV      4601            0.0000000000
     13917      4612  TIP3      H2            -14.0904203985      -26.8436757466       -2.0471246635  SOLV      4601            0.0000000000
     13918      4613  TIP3      OH2           -14.8844903985      -26.8854657466       -0.4236446635  SOLV      4602            0.0000000000
     13919      4613  TIP3      H1            -14.7376903985      -27.4054857466        0.3664453365  SOLV      4602            0.0000000000
     13920      4613  TIP3      H2            -14.8873203985      -25.9787057466       -0.1170546635  SOLV      4602            0.0000000000
     13921      4614  TIP3      OH2           -18.4313803985      -29.6331357466        0.0868953365  SOLV      4603            0.0000000000
     13922      4614  TIP3      H1            -19.1174503985      -29.2808857466        0.6538653365  SOLV      4603            0.0000000000
     13923      4614  TIP3      H2            -17.9085903985      -28.8701757466       -0.1596746635  SOLV      4603            0.0000000000
     13924      4615  TIP3      OH2           -12.1467703985      -25.1881057466        0.3257753365  SOLV      4604            0.0000000000
     13925      4615  TIP3      H1            -12.9631603985      -24.6911357466        0.3782053365  SOLV      4604            0.0000000000
     13926      4615  TIP3      H2            -11.6171403985      -24.7127557466       -0.3143446635  SOLV      4604            0.0000000000
     13927      4616  TIP3      OH2           -12.6153903985      -35.5907057466        2.2978653365  SOLV      4605            0.0000000000
     13928      4616  TIP3      H1            -11.8031303985      -35.0863857466        2.3440353365  SOLV      4605            0.0000000000
     13929      4616  TIP3      H2            -12.8600903985      -35.7357357466        3.2118253365  SOLV      4605            0.0000000000
     13930      4617  TIP3      OH2           -12.0797503985      -34.6044357466       11.4825253365  SOLV      4606            0.0000000000
     13931      4617  TIP3      H1            -11.9607203985      -34.0308957466       12.2395653365  SOLV      4606            0.0000000000
     13932      4617  TIP3      H2            -11.4242903985      -35.2924957466       11.5973053365  SOLV      4606            0.0000000000
     13933      4618  TIP3      OH2           -14.8084603985      -24.1443857466        0.3074653365  SOLV      4607            0.0000000000
     13934      4618  TIP3      H1            -14.6475903985      -23.3446357466       -0.1932746635  SOLV      4607            0.0000000000
     13935      4618  TIP3      H2            -15.0056803985      -23.8377857466        1.1925253365  SOLV      4607            0.0000000000
     13936      4619  TIP3      OH2            -5.8751703985      -36.6974057466       12.3174953365  SOLV      4608            0.0000000000
     13937      4619  TIP3      H1             -6.7915903985      -36.4352357466       12.2298653365  SOLV      4608            0.0000000000
     13938      4619  TIP3      H2             -5.5396703985      -36.7005057466       11.4210253365  SOLV      4608            0.0000000000
     13939      4620  TIP3      OH2            -7.2730703985      -32.9473057466        6.4132253365  SOLV      4609            0.0000000000
     13940      4620  TIP3      H1             -8.0706303985      -33.3622857466        6.0847253365  SOLV      4609            0.0000000000
     13941      4620  TIP3      H2             -6.8279603985      -33.6379357466        6.9042753365  SOLV      4609            0.0000000000
     13942      4621  TIP3      OH2           -17.8154903985      -27.0192457466       -1.0163246635  SOLV      4610            0.0000000000
     13943      4621  TIP3      H1            -17.2233403985      -26.3197657466       -0.7400846635  SOLV      4610            0.0000000000
     13944      4621  TIP3      H2            -17.3561903985      -27.4522957466       -1.7358646635  SOLV      4610            0.0000000000
     13945      4622  TIP3      OH2           -19.4995703985      -34.3549457466       -1.9003846635  SOLV      4611            0.0000000000
     13946      4622  TIP3      H1            -19.5443103985      -33.4156357466       -1.7216846635  SOLV      4611            0.0000000000
     13947      4622  TIP3      H2            -20.3872503985      -34.5904557466       -2.1701746635  SOLV      4611            0.0000000000
     13948      4623  TIP3      OH2            -6.1866103985      -23.6910557466        8.0355753365  SOLV      4612            0.0000000000
     13949      4623  TIP3      H1             -6.3421803985      -23.0126157466        7.3785053365  SOLV      4612            0.0000000000
     13950      4623  TIP3      H2             -5.2539703985      -23.6191257466        8.2386353365  SOLV      4612            0.0000000000
     13951      4624  TIP3      OH2           -19.7610403985      -25.6325757466        2.9332953365  SOLV      4613            0.0000000000
     13952      4624  TIP3      H1            -20.5931803985      -25.1603057466        2.9604353365  SOLV      4613            0.0000000000
     13953      4624  TIP3      H2            -19.2152103985      -25.1228157466        2.3346053365  SOLV      4613            0.0000000000
     13954      4625  TIP3      OH2           -20.4726703985      -23.0202057466       14.2630953365  SOLV      4614            0.0000000000
     13955      4625  TIP3      H1            -19.9324503985      -23.2368057466       15.0230153365  SOLV      4614            0.0000000000
     13956      4625  TIP3      H2            -20.9538703985      -23.8256057466       14.0733453365  SOLV      4614            0.0000000000
     13957      4626  TIP3      OH2           -15.8753303985      -24.1007657466       15.8835153365  SOLV      4615            0.0000000000
     13958      4626  TIP3      H1            -15.1076103985      -24.5596857466       16.2244353365  SOLV      4615            0.0000000000
     13959      4626  TIP3      H2            -15.8967103985      -24.3267857466       14.9536353365  SOLV      4615            0.0000000000
     13960      4627  TIP3      OH2           -11.7833703985      -24.5927057466       -2.7413046635  SOLV      4616            0.0000000000
     13961      4627  TIP3      H1            -12.4272703985      -25.2238457466       -2.4199346635  SOLV      4616            0.0000000000
     13962      4627  TIP3      H2            -11.0215403985      -25.1239057466       -2.9729546635  SOLV      4616            0.0000000000
     13963      4628  TIP3      OH2            -9.2984603985      -25.7206557466       14.6126653365  SOLV      4617            0.0000000000
     13964      4628  TIP3      H1             -9.6495103985      -26.5773557466       14.8557053365  SOLV      4617            0.0000000000
     13965      4628  TIP3      H2             -8.5721403985      -25.5779857466       15.2195653365  SOLV      4617            0.0000000000
     13966      4629  TIP3      OH2            -7.1790803985      -24.7757157466       -2.5075046635  SOLV      4618            0.0000000000
     13967      4629  TIP3      H1             -6.8960403985      -25.5701957466       -2.0548146635  SOLV      4618            0.0000000000
     13968      4629  TIP3      H2             -6.4392903985      -24.5426157466       -3.0683946635  SOLV      4618            0.0000000000
     13969      4630  TIP3      OH2           -20.5657203985      -29.2097957466       15.2175253365  SOLV      4619            0.0000000000
     13970      4630  TIP3      H1            -20.4216703985      -30.1117257466       14.9311953365  SOLV      4619            0.0000000000
     13971      4630  TIP3      H2            -21.3379803985      -28.9235857466       14.7297553365  SOLV      4619            0.0000000000
     13972      4631  TIP3      OH2           -16.2243503985      -28.8662257466       -2.6500146635  SOLV      4620            0.0000000000
     13973      4631  TIP3      H1            -16.1599403985      -29.6602657466       -2.1193746635  SOLV      4620            0.0000000000
     13974      4631  TIP3      H2            -15.5714303985      -28.9849457466       -3.3398146635  SOLV      4620            0.0000000000
     13975      4632  TIP3      OH2           -13.9101103985      -29.2399857466       14.6501653365  SOLV      4621            0.0000000000
     13976      4632  TIP3      H1            -14.2387303985      -28.9691757466       13.7929053365  SOLV      4621            0.0000000000
     13977      4632  TIP3      H2            -13.7582903985      -30.1810057466       14.5626653365  SOLV      4621            0.0000000000
     13978      4633  TIP3      OH2           -10.8720103985      -27.8190557466       -2.9142146635  SOLV      4622            0.0000000000
     13979      4633  TIP3      H1            -11.1406003985      -27.6388457466       -2.0133246635  SOLV      4622            0.0000000000
     13980      4633  TIP3      H2            -11.0784503985      -28.7444357466       -3.0456346635  SOLV      4622            0.0000000000
     13981      4634  TIP3      OH2            -8.1755903985      -29.3242557466       12.0333953365  SOLV      4623            0.0000000000
     13982      4634  TIP3      H1             -7.4301103985      -28.7358857466       11.9137953365  SOLV      4623            0.0000000000
     13983      4634  TIP3      H2             -8.9329103985      -28.7422857466       12.0967053365  SOLV      4623            0.0000000000
     13984      4635  TIP3      OH2           -19.7330703985      -32.0094657466       14.6374553365  SOLV      4624            0.0000000000
     13985      4635  TIP3      H1            -19.3249503985      -32.8668057466       14.5165153365  SOLV      4624            0.0000000000
     13986      4635  TIP3      H2            -19.9933103985      -31.9953357466       15.5584853365  SOLV      4624            0.0000000000
     13987      4636  TIP3      OH2           -15.0749703985      -30.8936057466       -0.3442146635  SOLV      4625            0.0000000000
     13988      4636  TIP3      H1            -15.5347703985      -31.3777757466        0.3416353365  SOLV      4625            0.0000000000
     13989      4636  TIP3      H2            -14.8201003985      -31.5620657466       -0.9801646635  SOLV      4625            0.0000000000
     13990      4637  TIP3      OH2           -15.7860403985      -33.0008957466       12.0117453365  SOLV      4626            0.0000000000
     13991      4637  TIP3      H1            -16.4044303985      -32.3262357466       12.2922153365  SOLV      4626            0.0000000000
     13992      4637  TIP3      H2            -15.4419203985      -32.6795057466       11.1783653365  SOLV      4626            0.0000000000
     13993      4638  TIP3      OH2           -14.0039303985      -32.6504257466       -2.0818946635  SOLV      4627            0.0000000000
     13994      4638  TIP3      H1            -14.1844303985      -32.8053057466       -3.0090646635  SOLV      4627            0.0000000000
     13995      4638  TIP3      H2            -13.0538803985      -32.5425557466       -2.0371046635  SOLV      4627            0.0000000000
     13996      4639  TIP3      OH2           -10.7662203985      -30.5293657466       15.2892253365  SOLV      4628            0.0000000000
     13997      4639  TIP3      H1             -9.8131003985      -30.4454557466       15.2618253365  SOLV      4628            0.0000000000
     13998      4639  TIP3      H2            -10.9267603985      -31.2411857466       15.9087153365  SOLV      4628            0.0000000000
     13999      4640  TIP3      OH2            -4.6141003985      -30.2960057466       -2.6360846635  SOLV      4629            0.0000000000
     14000      4640  TIP3      H1             -4.8876203985      -30.7204557466       -3.4492546635  SOLV      4629            0.0000000000
     14001      4640  TIP3      H2             -4.5746903985      -29.3645557466       -2.8530446635  SOLV      4629            0.0000000000
     14002      4641  TIP3      OH2           -15.4466703985      -35.6458157466       13.0940553365  SOLV      4630            0.0000000000
     14003      4641  TIP3      H1            -15.2965803985      -36.3746857466       12.4920253365  SOLV      4630            0.0000000000
     14004      4641  TIP3      H2            -15.4444303985      -34.8686457466       12.5352753365  SOLV      4630            0.0000000000
     14005      4642  TIP3      OH2           -13.4522603985      -31.8366157466       10.8263153365  SOLV      4631            0.0000000000
     14006      4642  TIP3      H1            -12.7017803985      -31.9928657466       10.2530953365  SOLV      4631            0.0000000000
     14007      4642  TIP3      H2            -13.7914303985      -30.9849557466       10.5508653365  SOLV      4631            0.0000000000
     14008      4643  TIP3      OH2            -9.0366403985      -34.0214357466       15.8548453365  SOLV      4632            0.0000000000
     14009      4643  TIP3      H1             -8.8445103985      -34.9524957466       15.7432953365  SOLV      4632            0.0000000000
     14010      4643  TIP3      H2             -8.1790103985      -33.5964857466       15.8443853365  SOLV      4632            0.0000000000
     14011      4644  TIP3      OH2            -7.7199203985      -31.2329157466       13.9321153365  SOLV      4633            0.0000000000
     14012      4644  TIP3      H1             -8.0014203985      -30.5234557466       13.3544953365  SOLV      4633            0.0000000000
     14013      4644  TIP3      H2             -6.7774903985      -31.3056157466       13.7812353365  SOLV      4633            0.0000000000
     14014      4645  TIP3      OH2           -16.9680403985      -34.4474657466       15.0056153365  SOLV      4634            0.0000000000
     14015      4645  TIP3      H1            -17.7351403985      -34.9799857466       14.7953753365  SOLV      4634            0.0000000000
     14016      4645  TIP3      H2            -16.2891403985      -34.7574257466       14.4062453365  SOLV      4634            0.0000000000
     14017      4646  TIP3      OH2           -12.9645003985      -35.4981257466       14.5819953365  SOLV      4635            0.0000000000
     14018      4646  TIP3      H1            -13.1999603985      -35.7174557466       15.4834853365  SOLV      4635            0.0000000000
     14019      4646  TIP3      H2            -13.7478103985      -35.7050057466       14.0722453365  SOLV      4635            0.0000000000
     14020      4647  TIP3      OH2           -10.2488403985      -36.3707757466       13.6573453365  SOLV      4636            0.0000000000
     14021      4647  TIP3      H1            -11.1963003985      -36.3388057466       13.7896753365  SOLV      4636            0.0000000000
     14022      4647  TIP3      H2             -9.9361703985      -36.9960657466       14.3111653365  SOLV      4636            0.0000000000
     14023      4648  TIP3      OH2           -18.7877603985      -36.5270857466       14.7100853365  SOLV      4637            0.0000000000
     14024      4648  TIP3      H1            -18.5760203985      -37.2334757466       14.0998353365  SOLV      4637            0.0000000000
     14025      4648  TIP3      H2            -18.8990103985      -36.9644857466       15.5542053365  SOLV      4637            0.0000000000
     14026      4649  TIP3      OH2           -14.1067603985      -21.9600557466       -1.0805346635  SOLV      4638            0.0000000000
     14027      4649  TIP3      H1            -13.1736903985      -21.8021857466       -0.9366946635  SOLV      4638            0.0000000000
     14028      4649  TIP3      H2            -14.3708803985      -21.2847557466       -1.7053846635  SOLV      4638            0.0000000000
     14029      4650  TIP3      OH2           -20.5382703985      -27.3236757466       -1.5977246635  SOLV      4639            0.0000000000
     14030      4650  TIP3      H1            -19.6243503985      -27.2447857466       -1.3243346635  SOLV      4639            0.0000000000
     14031      4650  TIP3      H2            -20.5309603985      -28.0107157466       -2.2641646635  SOLV      4639            0.0000000000
     14032      4651  TIP3      OH2           -21.8892103985      -21.9308257466        3.4796653365  SOLV      4640            0.0000000000
     14033      4651  TIP3      H1            -22.5365003985      -22.3926557466        2.9467853365  SOLV      4640            0.0000000000
     14034      4651  TIP3      H2            -21.5347503985      -22.6024957466        4.0622853365  SOLV      4640            0.0000000000
     14035      4652  TIP3      OH2           -21.0192903985      -23.8501257466        5.2842853365  SOLV      4641            0.0000000000
     14036      4652  TIP3      H1            -21.3536103985      -24.7303957466        5.4563053365  SOLV      4641            0.0000000000
     14037      4652  TIP3      H2            -20.7970503985      -23.5046257466        6.1488453365  SOLV      4641            0.0000000000
     14038      4653  TIP3      OH2            -3.4708103985      -23.0404857466        8.2647653365  SOLV      4642            0.0000000000
     14039      4653  TIP3      H1             -3.4921403985      -22.8556457466        9.2037053365  SOLV      4642            0.0000000000
     14040      4653  TIP3      H2             -2.7801903985      -22.4720857466        7.9239053365  SOLV      4642            0.0000000000
     14041      4654  TIP3      OH2            -3.9075203985      -23.4733757466       11.1866753365  SOLV      4643            0.0000000000
     14042      4654  TIP3      H1             -4.3946503985      -24.2089657466       10.8154153365  SOLV      4643            0.0000000000
     14043      4654  TIP3      H2             -3.3582503985      -23.8669857466       11.8646153365  SOLV      4643            0.0000000000
     14044      4655  TIP3      OH2            -5.4567903985      -27.6835657466       15.8247053365  SOLV      4644            0.0000000000
     14045      4655  TIP3      H1             -6.3226803985      -27.7885957466       16.2189353365  SOLV      4644            0.0000000000
     14046      4655  TIP3      H2             -5.0802003985      -26.9252357466       16.2711753365  SOLV      4644            0.0000000000
     14047      4656  TIP3      OH2            -4.1558203985      -29.4271957466        1.3389553365  SOLV      4645            0.0000000000
     14048      4656  TIP3      H1             -3.3056803985      -29.0061057466        1.4661153365  SOLV      4645            0.0000000000
     14049      4656  TIP3      H2             -4.1503103985      -30.1671857466        1.9460953365  SOLV      4645            0.0000000000
     14050      4657  TIP3      OH2            -3.7612603985      -31.3734557466        3.1625253365  SOLV      4646            0.0000000000
     14051      4657  TIP3      H1             -4.4878003985      -31.8531957466        3.5602853365  SOLV      4646            0.0000000000
     14052      4657  TIP3      H2             -3.1799303985      -31.1679857466        3.8946853365  SOLV      4646            0.0000000000
     14053      4658  TIP3      OH2            -4.0021403985      -28.5887057466        8.1102853365  SOLV      4647            0.0000000000
     14054      4658  TIP3      H1             -3.1687203985      -28.9667057466        7.8296453365  SOLV      4647            0.0000000000
     14055      4658  TIP3      H2             -3.8901103985      -27.6455857466        7.9911953365  SOLV      4647            0.0000000000
     14056      4659  TIP3      OH2            -5.5159103985      -25.7109557466       10.4171253365  SOLV      4648            0.0000000000
     14057      4659  TIP3      H1             -6.1633803985      -25.3858057466       11.0426453365  SOLV      4648            0.0000000000
     14058      4659  TIP3      H2             -6.0335103985      -26.1511857466        9.7429553365  SOLV      4648            0.0000000000
     14059      4660  TIP3      OH2            -3.4929503985      -31.4726057466       -0.4463446635  SOLV      4649            0.0000000000
     14060      4660  TIP3      H1             -4.0148403985      -31.1161957466       -1.1652546635  SOLV      4649            0.0000000000
     14061      4660  TIP3      H2             -3.5260303985      -30.7978257466        0.2317453365  SOLV      4649            0.0000000000
     14062      4661  TIP3      OH2            -5.1440503985      -34.2330457466       -1.8956346635  SOLV      4650            0.0000000000
     14063      4661  TIP3      H1             -5.0476103985      -33.5663457466       -2.5756646635  SOLV      4650            0.0000000000
     14064      4661  TIP3      H2             -5.2840903985      -35.0484157466       -2.3770846635  SOLV      4650            0.0000000000
     14065      4662  TIP3      OH2            -5.9745803985      -32.8528057466        3.7253953365  SOLV      4651            0.0000000000
     14066      4662  TIP3      H1             -6.1247003985      -33.7979457466        3.7051753365  SOLV      4651            0.0000000000
     14067      4662  TIP3      H2             -6.3281303985      -32.5716657466        4.5693053365  SOLV      4651            0.0000000000
     14068      4663  TIP3      OH2           -20.9393403985      -30.7745857466        7.7357753365  SOLV      4652            0.0000000000
     14069      4663  TIP3      H1            -20.7550503985      -30.8564157466        6.8000653365  SOLV      4652            0.0000000000
     14070      4663  TIP3      H2            -20.0900503985      -30.8988857466        8.1594153365  SOLV      4652            0.0000000000
     14071      4664  TIP3      OH2            -5.1182903985      -30.8824757466       13.3642253365  SOLV      4653            0.0000000000
     14072      4664  TIP3      H1             -4.5355603985      -31.6172457466       13.5559453365  SOLV      4653            0.0000000000
     14073      4664  TIP3      H2             -4.5543603985      -30.1104457466       13.4108053365  SOLV      4653            0.0000000000
     14074      4665  TIP3      OH2            -3.6215803985      -32.9798957466       14.0487653365  SOLV      4654            0.0000000000
     14075      4665  TIP3      H1             -4.4849103985      -33.3586857466       13.8832353365  SOLV      4654            0.0000000000
     14076      4665  TIP3      H2             -3.0172103985      -33.7184157466       13.9743453365  SOLV      4654            0.0000000000
     14077      4666  TIP3      OH2            -6.2641003985      -35.2702257466        2.1879053365  SOLV      4655            0.0000000000
     14078      4666  TIP3      H1             -5.9843903985      -36.1771857466        2.3120753365  SOLV      4655            0.0000000000
     14079      4666  TIP3      H2             -5.5049303985      -34.8360757466        1.7988253365  SOLV      4655            0.0000000000
     14080      4667  TIP3      OH2            -5.6522703985      -34.6884857466        7.6237953365  SOLV      4656            0.0000000000
     14081      4667  TIP3      H1             -4.7194703985      -34.4764957466        7.5893953365  SOLV      4656            0.0000000000
     14082      4667  TIP3      H2             -5.8875203985      -34.5872757466        8.5460953365  SOLV      4656            0.0000000000
     14083      4668  TIP3      OH2            -5.6230803985      -33.9519557466       10.3997353365  SOLV      4657            0.0000000000
     14084      4668  TIP3      H1             -6.4659503985      -33.6839157466       10.7657153365  SOLV      4657            0.0000000000
     14085      4668  TIP3      H2             -5.1806503985      -33.1297657466       10.1888453365  SOLV      4657            0.0000000000
     14086      4669  TIP3      OH2           -21.3418603985      -35.5040857466       13.8766553365  SOLV      4658            0.0000000000
     14087      4669  TIP3      H1            -20.4223703985      -35.6262557466       14.1129653365  SOLV      4658            0.0000000000
     14088      4669  TIP3      H2            -21.7914103985      -36.2541157466       14.2660053365  SOLV      4658            0.0000000000
     14089      4670  TIP3      OH2           -21.8165803985      -34.1926257466        7.8369653365  SOLV      4659            0.0000000000
     14090      4670  TIP3      H1            -21.3246003985      -34.4135757466        7.0461653365  SOLV      4659            0.0000000000
     14091      4670  TIP3      H2            -21.4544903985      -33.3522857466        8.1179153365  SOLV      4659            0.0000000000
     14092      4671  TIP3      OH2            -6.7322103985      -22.9505457466        3.8369453365  SOLV      4660            0.0000000000
     14093      4671  TIP3      H1             -6.0799203985      -23.2983357466        3.2288553365  SOLV      4660            0.0000000000
     14094      4671  TIP3      H2             -6.2218303985      -22.4622257466        4.4829153365  SOLV      4660            0.0000000000
     14095      4672  TIP3      OH2           -19.3474603985      -26.0214057466       14.3800353365  SOLV      4661            0.0000000000
     14096      4672  TIP3      H1            -20.1682103985      -25.8467557466       13.9195053365  SOLV      4661            0.0000000000
     14097      4672  TIP3      H2            -19.5996803985      -26.0949357466       15.3004753365  SOLV      4661            0.0000000000
     14098      4673  TIP3      OH2           -16.3931703985      -25.0472857466       10.6384353365  SOLV      4662            0.0000000000
     14099      4673  TIP3      H1            -16.8180603985      -24.2374357466       10.3558953365  SOLV      4662            0.0000000000
     14100      4673  TIP3      H2            -15.4888903985      -24.9618757466       10.3364153365  SOLV      4662            0.0000000000
     14101      4674  TIP3      OH2           -12.0820303985      -23.6482857466       13.5978053365  SOLV      4663            0.0000000000
     14102      4674  TIP3      H1            -11.8972803985      -23.9816757466       14.4758353365  SOLV      4663            0.0000000000
     14103      4674  TIP3      H2            -11.2355803985      -23.3384257466       13.2757253365  SOLV      4663            0.0000000000
     14104      4675  TIP3      OH2            -9.7369903985      -22.3623957466       12.8419453365  SOLV      4664            0.0000000000
     14105      4675  TIP3      H1             -9.0601003985      -22.9951657466       12.6018653365  SOLV      4664            0.0000000000
     14106      4675  TIP3      H2             -9.4151103985      -21.9613457466       13.6492753365  SOLV      4664            0.0000000000
     14107      4676  TIP3      OH2           -18.9915003985      -21.7908957466       10.6859653365  SOLV      4665            0.0000000000
     14108      4676  TIP3      H1            -19.7118603985      -21.3507957466       10.2347353365  SOLV      4665            0.0000000000
     14109      4676  TIP3      H2            -19.3571003985      -22.0414257466       11.5343653365  SOLV      4665            0.0000000000
     14110      4677  TIP3      OH2           -16.5242403985      -22.1905057466        9.7156853365  SOLV      4666            0.0000000000
     14111      4677  TIP3      H1            -17.3890203985      -22.1186557466       10.1196953365  SOLV      4666            0.0000000000
     14112      4677  TIP3      H2            -16.5793403985      -21.6437757466        8.9319353365  SOLV      4666            0.0000000000
     14113      4678  TIP3      OH2           -11.8136803985      -22.3026157466        8.8912853365  SOLV      4667            0.0000000000
     14114      4678  TIP3      H1            -12.2702803985      -21.7736457466        8.2371253365  SOLV      4667            0.0000000000
     14115      4678  TIP3      H2            -11.6508803985      -21.6994757466        9.6165153365  SOLV      4667            0.0000000000
     14116      4679  TIP3      OH2            -9.4860503985      -23.4246557466        9.8363153365  SOLV      4668            0.0000000000
     14117      4679  TIP3      H1            -10.3906803985      -23.2596357466        9.5705253365  SOLV      4668            0.0000000000
     14118      4679  TIP3      H2             -9.0571903985      -22.5714357466        9.7706553365  SOLV      4668            0.0000000000
     14119      4680  TIP3      OH2            -6.8818603985      -21.8547457466       10.1310953365  SOLV      4669            0.0000000000
     14120      4680  TIP3      H1             -7.0636603985      -20.9388557466        9.9205853365  SOLV      4669            0.0000000000
     14121      4680  TIP3      H2             -6.7050803985      -22.2650357466        9.2845553365  SOLV      4669            0.0000000000
     14122      4681  TIP3      OH2           -19.5766903985      -23.1676457466        7.5961453365  SOLV      4670            0.0000000000
     14123      4681  TIP3      H1            -19.5950903985      -23.5931357466        8.4533753365  SOLV      4670            0.0000000000
     14124      4681  TIP3      H2            -18.7719003985      -23.4861457466        7.1873653365  SOLV      4670            0.0000000000
     14125      4682  TIP3      OH2           -17.4353803985      -24.4577757466        6.2511353365  SOLV      4671            0.0000000000
     14126      4682  TIP3      H1            -17.6543103985      -25.3740357466        6.4207353365  SOLV      4671            0.0000000000
     14127      4682  TIP3      H2            -16.6111603985      -24.3177357466        6.7172753365  SOLV      4671            0.0000000000
     14128      4683  TIP3      OH2           -14.8981303985      -23.9878457466        7.0999353365  SOLV      4672            0.0000000000
     14129      4683  TIP3      H1            -14.6855603985      -24.8759457466        6.8130253365  SOLV      4672            0.0000000000
     14130      4683  TIP3      H2            -14.8336203985      -24.0220757466        8.0543353365  SOLV      4672            0.0000000000
     14131      4684  TIP3      OH2           -20.3257203985      -23.9437257466        0.7673753365  SOLV      4673            0.0000000000
     14132      4684  TIP3      H1            -21.0107303985      -23.9818357466        0.0998853365  SOLV      4673            0.0000000000
     14133      4684  TIP3      H2            -20.3220003985      -23.0309657466        1.0555853365  SOLV      4673            0.0000000000
     14134      4685  TIP3      OH2           -11.4613703985      -22.7342357466       -0.8350046635  SOLV      4674            0.0000000000
     14135      4685  TIP3      H1            -10.5953503985      -22.3674957466       -1.0131846635  SOLV      4674            0.0000000000
     14136      4685  TIP3      H2            -11.7080903985      -23.1734357466       -1.6489246635  SOLV      4674            0.0000000000
     14137      4686  TIP3      OH2            -4.7524103985      -23.1712057466        1.8441053365  SOLV      4675            0.0000000000
     14138      4686  TIP3      H1             -4.9467003985      -23.9189957466        1.2790653365  SOLV      4675            0.0000000000
     14139      4686  TIP3      H2             -4.7914003985      -22.4131957466        1.2608953365  SOLV      4675            0.0000000000
     14140      4687  TIP3      OH2           -18.5076003985      -23.0236457466       -2.2074146635  SOLV      4676            0.0000000000
     14141      4687  TIP3      H1            -18.7751403985      -22.7373557466       -1.3341046635  SOLV      4676            0.0000000000
     14142      4687  TIP3      H2            -17.7363403985      -23.5697257466       -2.0551646635  SOLV      4676            0.0000000000
     14143      4688  TIP3      OH2            -5.5347903985      -24.4199657466       13.9942853365  SOLV      4677            0.0000000000
     14144      4688  TIP3      H1             -6.3166003985      -24.6061657466       13.4743453365  SOLV      4677            0.0000000000
     14145      4688  TIP3      H2             -5.6068003985      -23.4905357466       14.2115353365  SOLV      4677            0.0000000000
     14146      4689  TIP3      OH2             8.8712496015      -30.5335257466        4.0250053365  SOLV      4678            0.0000000000
     14147      4689  TIP3      H1              8.9603596015      -29.5897057466        3.8927153365  SOLV      4678            0.0000000000
     14148      4689  TIP3      H2              8.2330096015      -30.8088857466        3.3669453365  SOLV      4678            0.0000000000
     14149      4690  TIP3      OH2             7.8043796015      -31.2784557466        7.4438253365  SOLV      4679            0.0000000000
     14150      4690  TIP3      H1              7.7661296015      -31.9248257466        8.1487853365  SOLV      4679            0.0000000000
     14151      4690  TIP3      H2              7.4820296015      -31.7450157466        6.6726953365  SOLV      4679            0.0000000000
     14152      4691  TIP3      OH2             0.1728796015      -31.6642457466        9.0368153365  SOLV      4680            0.0000000000
     14153      4691  TIP3      H1              0.2140896015      -32.2899157466        9.7600553365  SOLV      4680            0.0000000000
     14154      4691  TIP3      H2              0.8756496015      -31.0403857466        9.2188553365  SOLV      4680            0.0000000000
     14155      4692  TIP3      OH2            11.5103996015      -28.3394157466        5.7453353365  SOLV      4681            0.0000000000
     14156      4692  TIP3      H1             11.0696696015      -29.0598157466        6.1958953365  SOLV      4681            0.0000000000
     14157      4692  TIP3      H2             11.4973696015      -27.6186957466        6.3751053365  SOLV      4681            0.0000000000
     14158      4693  TIP3      OH2             1.0961896015      -27.2143557466        7.5717253365  SOLV      4682            0.0000000000
     14159      4693  TIP3      H1              0.7267096015      -28.0163057466        7.2021553365  SOLV      4682            0.0000000000
     14160      4693  TIP3      H2              2.0372996015      -27.3828657466        7.6180653365  SOLV      4682            0.0000000000
     14161      4694  TIP3      OH2            -2.2937603985      -33.5540957466        2.9646053365  SOLV      4683            0.0000000000
     14162      4694  TIP3      H1             -2.7414203985      -32.7082257466        2.9462553365  SOLV      4683            0.0000000000
     14163      4694  TIP3      H2             -2.8546403985      -34.1336757466        2.4491153365  SOLV      4683            0.0000000000
     14164      4695  TIP3      OH2            -1.5831503985      -31.3921357466        5.0904053365  SOLV      4684            0.0000000000
     14165      4695  TIP3      H1             -1.3698003985      -32.1619757466        5.6177053365  SOLV      4684            0.0000000000
     14166      4695  TIP3      H2             -0.8453903985      -31.3024657466        4.4871653365  SOLV      4684            0.0000000000
     14167      4696  TIP3      OH2             8.6219496015      -23.2352457466        5.9573753365  SOLV      4685            0.0000000000
     14168      4696  TIP3      H1              9.2415896015      -23.9117757466        5.6842953365  SOLV      4685            0.0000000000
     14169      4696  TIP3      H2              8.4136896015      -23.4531657466        6.8658653365  SOLV      4685            0.0000000000
     14170      4697  TIP3      OH2             6.1938196015      -28.8463157466        7.8499253365  SOLV      4686            0.0000000000
     14171      4697  TIP3      H1              6.4976096015      -29.5321757466        7.2553353365  SOLV      4686            0.0000000000
     14172      4697  TIP3      H2              6.9152196015      -28.7274457466        8.4677253365  SOLV      4686            0.0000000000
     14173      4698  TIP3      OH2            14.8567996015      -37.2447857466        8.7105453365  SOLV      4687            0.0000000000
     14174      4698  TIP3      H1             14.9060196015      -36.6346657466        9.4464553365  SOLV      4687            0.0000000000
     14175      4698  TIP3      H2             15.2823096015      -36.7836957466        7.9876553365  SOLV      4687            0.0000000000
     14176      4699  TIP3      OH2             9.3345196015      -34.4520757466        8.1774053365  SOLV      4688            0.0000000000
     14177      4699  TIP3      H1              9.4771096015      -35.3983757466        8.1975653365  SOLV      4688            0.0000000000
     14178      4699  TIP3      H2              9.2284196015      -34.2450957466        7.2488953365  SOLV      4688            0.0000000000
     14179      4700  TIP3      OH2             2.4893496015      -36.3504357466        5.4498853365  SOLV      4689            0.0000000000
     14180      4700  TIP3      H1              2.5324596015      -35.4905857466        5.0315153365  SOLV      4689            0.0000000000
     14181      4700  TIP3      H2              2.0317596015      -36.9029657466        4.8162053365  SOLV      4689            0.0000000000
     14182      4701  TIP3      OH2            10.2116196015      -36.2198757466        3.8507153365  SOLV      4690            0.0000000000
     14183      4701  TIP3      H1             10.8580496015      -36.5485557466        4.4754753365  SOLV      4690            0.0000000000
     14184      4701  TIP3      H2             10.7215596015      -35.7019757466        3.2278553365  SOLV      4690            0.0000000000
     14185      4702  TIP3      OH2            -0.8905003985      -33.9538557466        6.2120253365  SOLV      4691            0.0000000000
     14186      4702  TIP3      H1             -0.2368403985      -34.5036857466        6.6440353365  SOLV      4691            0.0000000000
     14187      4702  TIP3      H2             -0.8665703985      -34.2279557466        5.2952253365  SOLV      4691            0.0000000000
     14188      4703  TIP3      OH2             4.2659496015      -32.4037257466        5.4271753365  SOLV      4692            0.0000000000
     14189      4703  TIP3      H1              4.8820496015      -32.9301857466        5.9365753365  SOLV      4692            0.0000000000
     14190      4703  TIP3      H2              3.6798296015      -33.0438557466        5.0235353365  SOLV      4692            0.0000000000
     14191      4704  TIP3      OH2            15.2482596015      -35.7668657466       10.9465253365  SOLV      4693            0.0000000000
     14192      4704  TIP3      H1             14.5597196015      -35.1087957466       10.8511853365  SOLV      4693            0.0000000000
     14193      4704  TIP3      H2             15.2637196015      -35.9640757466       11.8830653365  SOLV      4693            0.0000000000
     14194      4705  TIP3      OH2             8.6685196015      -27.9324857466        3.0678753365  SOLV      4694            0.0000000000
     14195      4705  TIP3      H1              8.3730296015      -28.2552557466        2.2165653365  SOLV      4694            0.0000000000
     14196      4705  TIP3      H2              8.3442996015      -27.0328157466        3.1091353365  SOLV      4694            0.0000000000
     14197      4706  TIP3      OH2             3.8686796015      -29.7570257466        9.8113353365  SOLV      4695            0.0000000000
     14198      4706  TIP3      H1              3.1285896015      -29.1588757466        9.9148553365  SOLV      4695            0.0000000000
     14199      4706  TIP3      H2              4.5826296015      -29.2030657466        9.4956953365  SOLV      4695            0.0000000000
     14200      4707  TIP3      OH2             0.8932696015      -35.5404157466        7.4761853365  SOLV      4696            0.0000000000
     14201      4707  TIP3      H1              1.5068996015      -34.9076557466        7.8494253365  SOLV      4696            0.0000000000
     14202      4707  TIP3      H2              1.4053396015      -36.0129157466        6.8198753365  SOLV      4696            0.0000000000
     14203      4708  TIP3      OH2             2.2761096015      -27.7927257466       10.5984853365  SOLV      4697            0.0000000000
     14204      4708  TIP3      H1              2.2708696015      -26.9133757466       10.2204153365  SOLV      4697            0.0000000000
     14205      4708  TIP3      H2              1.4225196015      -27.8763157466       11.0234753365  SOLV      4697            0.0000000000
     14206      4709  TIP3      OH2            -1.6028003985      -28.1219357466        1.3804153365  SOLV      4698            0.0000000000
     14207      4709  TIP3      H1             -1.8747103985      -27.8928357466        0.4917053365  SOLV      4698            0.0000000000
     14208      4709  TIP3      H2             -1.5572303985      -27.2840557466        1.8409453365  SOLV      4698            0.0000000000
     14209      4710  TIP3      OH2            12.0221696015      -26.5003457466        8.0932653365  SOLV      4699            0.0000000000
     14210      4710  TIP3      H1             11.0805396015      -26.4419557466        8.2549553365  SOLV      4699            0.0000000000
     14211      4710  TIP3      H2             12.2987796015      -25.5942957466        7.9562353365  SOLV      4699            0.0000000000
     14212      4711  TIP3      OH2            10.2742896015      -24.7189957466        4.7184253365  SOLV      4700            0.0000000000
     14213      4711  TIP3      H1             10.6995196015      -25.4262057466        4.2333853365  SOLV      4700            0.0000000000
     14214      4711  TIP3      H2             10.5912896015      -23.9177257466        4.3016453365  SOLV      4700            0.0000000000
     14215      4712  TIP3      OH2            11.4339396015      -26.8181457466        3.2270853365  SOLV      4701            0.0000000000
     14216      4712  TIP3      H1             11.1764196015      -27.5081357466        2.6156753365  SOLV      4701            0.0000000000
     14217      4712  TIP3      H2             11.5050196015      -27.2610257466        4.0726753365  SOLV      4701            0.0000000000
     14218      4713  TIP3      OH2            13.1199596015      -28.2514757466       11.7044353365  SOLV      4702            0.0000000000
     14219      4713  TIP3      H1             13.2595896015      -28.8432257466       10.9651353365  SOLV      4702            0.0000000000
     14220      4713  TIP3      H2             13.2872396015      -27.3788857466       11.3483153365  SOLV      4702            0.0000000000
     14221      4714  TIP3      OH2             7.5924996015      -31.2895257466        1.4770353365  SOLV      4703            0.0000000000
     14222      4714  TIP3      H1              6.8810496015      -30.7545557466        1.1250853365  SOLV      4703            0.0000000000
     14223      4714  TIP3      H2              8.2834596015      -31.2343157466        0.8169253365  SOLV      4703            0.0000000000
     14224      4715  TIP3      OH2             7.6464196015      -32.8320957466       -1.4844646635  SOLV      4704            0.0000000000
     14225      4715  TIP3      H1              8.3474096015      -32.8094057466       -0.8330646635  SOLV      4704            0.0000000000
     14226      4715  TIP3      H2              7.9487096015      -33.4601257466       -2.1405346635  SOLV      4704            0.0000000000
     14227      4716  TIP3      OH2            14.9618896015      -31.9116757466        9.7704753365  SOLV      4705            0.0000000000
     14228      4716  TIP3      H1             14.3092996015      -31.2171157466        9.8595653365  SOLV      4705            0.0000000000
     14229      4716  TIP3      H2             15.4269196015      -31.7015857466        8.9606353365  SOLV      4705            0.0000000000
     14230      4717  TIP3      OH2            10.9982696015      -31.0801957466        2.4286253365  SOLV      4706            0.0000000000
     14231      4717  TIP3      H1             10.2663696015      -30.8518257466        3.0016853365  SOLV      4706            0.0000000000
     14232      4717  TIP3      H2             11.4454896015      -31.7939257466        2.8833753365  SOLV      4706            0.0000000000
     14233      4718  TIP3      OH2            10.8956196015      -32.9059357466       11.4963253365  SOLV      4707            0.0000000000
     14234      4718  TIP3      H1             10.9755296015      -32.1424957466       12.0681753365  SOLV      4707            0.0000000000
     14235      4718  TIP3      H2             10.2943896015      -32.6266957466       10.8058353365  SOLV      4707            0.0000000000
     14236      4719  TIP3      OH2             2.6436396015      -30.4495757466        4.3111253365  SOLV      4708            0.0000000000
     14237      4719  TIP3      H1              2.3131596015      -30.8202357466        3.4928253365  SOLV      4708            0.0000000000
     14238      4719  TIP3      H2              3.2320496015      -31.1201757466        4.6579553365  SOLV      4708            0.0000000000
     14239      4720  TIP3      OH2             4.0103896015      -27.0215157466        6.9923453365  SOLV      4709            0.0000000000
     14240      4720  TIP3      H1              3.9155196015      -27.6002057466        6.2358053365  SOLV      4709            0.0000000000
     14241      4720  TIP3      H2              4.7397496015      -27.3929457466        7.4886253365  SOLV      4709            0.0000000000
     14242      4721  TIP3      OH2             3.0101896015      -31.6810157466        7.9446253365  SOLV      4710            0.0000000000
     14243      4721  TIP3      H1              3.5754396015      -31.5595957466        7.1817453365  SOLV      4710            0.0000000000
     14244      4721  TIP3      H2              3.3290796015      -31.0435157466        8.5834753365  SOLV      4710            0.0000000000
     14245      4722  TIP3      OH2             9.3194096015      -26.1778257466        8.6786753365  SOLV      4711            0.0000000000
     14246      4722  TIP3      H1              9.0790696015      -25.5155157466        9.3265953365  SOLV      4711            0.0000000000
     14247      4722  TIP3      H2              9.1212296015      -27.0123057466        9.1036353365  SOLV      4711            0.0000000000
     14248      4723  TIP3      OH2             3.8902596015      -27.2817457466       12.6618153365  SOLV      4712            0.0000000000
     14249      4723  TIP3      H1              3.5790096015      -26.4994257466       13.1171353365  SOLV      4712            0.0000000000
     14250      4723  TIP3      H2              3.2402796015      -27.4348357466       11.9760153365  SOLV      4712            0.0000000000
     14251      4724  TIP3      OH2             9.8692196015      -31.9179057466        0.1137453365  SOLV      4713            0.0000000000
     14252      4724  TIP3      H1             10.4487696015      -31.7678757466        0.8606353365  SOLV      4713            0.0000000000
     14253      4724  TIP3      H2             10.2832196015      -31.4471657466       -0.6096146635  SOLV      4713            0.0000000000
     14254      4725  TIP3      OH2             0.8102496015      -31.0836357466       11.8903853365  SOLV      4714            0.0000000000
     14255      4725  TIP3      H1              0.8805696015      -30.4329557466       12.5888853365  SOLV      4714            0.0000000000
     14256      4725  TIP3      H2             -0.0805303985      -30.9808857466       11.5554753365  SOLV      4714            0.0000000000
     14257      4726  TIP3      OH2             7.5957096015      -25.1810557466        3.5490553365  SOLV      4715            0.0000000000
     14258      4726  TIP3      H1              8.0694696015      -24.8854257466        4.3264753365  SOLV      4715            0.0000000000
     14259      4726  TIP3      H2              7.0326396015      -24.4428957466        3.3160153365  SOLV      4715            0.0000000000
     14260      4727  TIP3      OH2             2.1298496015      -25.2102457466       13.4251953365  SOLV      4716            0.0000000000
     14261      4727  TIP3      H1              2.1373796015      -25.3462757466       12.4777453365  SOLV      4716            0.0000000000
     14262      4727  TIP3      H2              1.2138896015      -25.3274357466       13.6771953365  SOLV      4716            0.0000000000
     14263      4728  TIP3      OH2             1.6339096015      -31.3801457466        1.9004053365  SOLV      4717            0.0000000000
     14264      4728  TIP3      H1              1.3420396015      -30.6119757466        1.4095353365  SOLV      4717            0.0000000000
     14265      4728  TIP3      H2              0.9594296015      -32.0395257466        1.7375453365  SOLV      4717            0.0000000000
     14266      4729  TIP3      OH2            14.7571996015      -25.8016257466       -1.6968946635  SOLV      4718            0.0000000000
     14267      4729  TIP3      H1             14.8305496015      -24.8626057466       -1.5263646635  SOLV      4718            0.0000000000
     14268      4729  TIP3      H2             15.6627096015      -26.1067657466       -1.7531646635  SOLV      4718            0.0000000000
     14269      4730  TIP3      OH2            -2.2730803985      -29.0172257466       10.7153853365  SOLV      4719            0.0000000000
     14270      4730  TIP3      H1             -2.7742403985      -29.0452857466        9.9003553365  SOLV      4719            0.0000000000
     14271      4730  TIP3      H2             -2.2677103985      -29.9229057466       11.0251153365  SOLV      4719            0.0000000000
     14272      4731  TIP3      OH2            -2.5228103985      -26.2368457466        7.5994053365  SOLV      4720            0.0000000000
     14273      4731  TIP3      H1             -1.5767503985      -26.3811457466        7.5803553365  SOLV      4720            0.0000000000
     14274      4731  TIP3      H2             -2.6351803985      -25.4525657466        8.1365253365  SOLV      4720            0.0000000000
     14275      4732  TIP3      OH2            15.6750396015      -25.5708757466       13.2817753365  SOLV      4721            0.0000000000
     14276      4732  TIP3      H1             15.6257196015      -26.5260657466       13.2445353365  SOLV      4721            0.0000000000
     14277      4732  TIP3      H2             14.8482696015      -25.3033457466       13.6831553365  SOLV      4721            0.0000000000
     14278      4733  TIP3      OH2             6.6534396015      -25.9969557466       12.1579153365  SOLV      4722            0.0000000000
     14279      4733  TIP3      H1              6.7408996015      -25.1704957466       12.6328253365  SOLV      4722            0.0000000000
     14280      4733  TIP3      H2              5.7899496015      -26.3265757466       12.4068453365  SOLV      4722            0.0000000000
     14281      4734  TIP3      OH2             7.0680196015      -22.2245857466        1.9639753365  SOLV      4723            0.0000000000
     14282      4734  TIP3      H1              6.9926196015      -22.3458657466        1.0174953365  SOLV      4723            0.0000000000
     14283      4734  TIP3      H2              7.1008896015      -21.2753157466        2.0824353365  SOLV      4723            0.0000000000
     14284      4735  TIP3      OH2             0.7213996015      -23.4358857466        3.7448753365  SOLV      4724            0.0000000000
     14285      4735  TIP3      H1              0.8734396015      -23.7838457466        4.6235253365  SOLV      4724            0.0000000000
     14286      4735  TIP3      H2             -0.1295603985      -23.7921557466        3.4895953365  SOLV      4724            0.0000000000
     14287      4736  TIP3      OH2            10.1696196015      -23.0705657466       -1.0337846635  SOLV      4725            0.0000000000
     14288      4736  TIP3      H1             10.5444596015      -23.8149557466       -1.5045246635  SOLV      4725            0.0000000000
     14289      4736  TIP3      H2             10.1739896015      -23.3405057466       -0.1154546635  SOLV      4725            0.0000000000
     14290      4737  TIP3      OH2             9.8384296015      -23.1448557466        1.7154353365  SOLV      4726            0.0000000000
     14291      4737  TIP3      H1              8.9034096015      -23.0446657466        1.8941353365  SOLV      4726            0.0000000000
     14292      4737  TIP3      H2             10.1186196015      -23.8542557466        2.2937553365  SOLV      4726            0.0000000000
     14293      4738  TIP3      OH2            12.8270196015      -34.0776257466       13.7619953365  SOLV      4727            0.0000000000
     14294      4738  TIP3      H1             12.4196996015      -33.5970657466       13.0413253365  SOLV      4727            0.0000000000
     14295      4738  TIP3      H2             12.8675896015      -34.9830257466       13.4540753365  SOLV      4727            0.0000000000
     14296      4739  TIP3      OH2            -0.0240303985      -27.6936857466       11.7586653365  SOLV      4728            0.0000000000
     14297      4739  TIP3      H1              0.1920996015      -28.0551257466       12.6182453365  SOLV      4728            0.0000000000
     14298      4739  TIP3      H2             -0.8795603985      -28.0683057466       11.5490153365  SOLV      4728            0.0000000000
     14299      4740  TIP3      OH2            10.5840396015      -35.7460757466       11.9822353365  SOLV      4729            0.0000000000
     14300      4740  TIP3      H1             10.0699896015      -35.8718557466       12.7798353365  SOLV      4729            0.0000000000
     14301      4740  TIP3      H2             10.4285096015      -34.8337657466       11.7378553365  SOLV      4729            0.0000000000
     14302      4741  TIP3      OH2            11.3465296015      -30.8850757466       -2.2564646635  SOLV      4730            0.0000000000
     14303      4741  TIP3      H1             11.3886096015      -31.1076857466       -3.1864646635  SOLV      4730            0.0000000000
     14304      4741  TIP3      H2             12.1957396015      -30.4863657466       -2.0664746635  SOLV      4730            0.0000000000
     14305      4742  TIP3      OH2             2.6857796015      -34.2581857466        8.8491053365  SOLV      4731            0.0000000000
     14306      4742  TIP3      H1              2.0439896015      -34.2984557466        9.5581153365  SOLV      4731            0.0000000000
     14307      4742  TIP3      H2              2.7229796015      -33.3317157466        8.6114053365  SOLV      4731            0.0000000000
     14308      4743  TIP3      OH2             2.6826896015      -34.0371757466        3.7611053365  SOLV      4732            0.0000000000
     14309      4743  TIP3      H1              1.7899796015      -34.3775657466        3.7024853365  SOLV      4732            0.0000000000
     14310      4743  TIP3      H2              3.1333496015      -34.4140857466        3.0054253365  SOLV      4732            0.0000000000
     14311      4744  TIP3      OH2             8.2182396015      -33.6211457466        2.5781853365  SOLV      4733            0.0000000000
     14312      4744  TIP3      H1              7.8092696015      -32.8062857466        2.2866653365  SOLV      4733            0.0000000000
     14313      4744  TIP3      H2              8.9388596015      -33.7611357466        1.9638953365  SOLV      4733            0.0000000000
     14314      4745  TIP3      OH2             7.3203996015      -33.4455057466       14.0662553365  SOLV      4734            0.0000000000
     14315      4745  TIP3      H1              6.7577796015      -34.1503457466       14.3870353365  SOLV      4734            0.0000000000
     14316      4745  TIP3      H2              8.1467396015      -33.5663157466       14.5340153365  SOLV      4734            0.0000000000
     14317      4746  TIP3      OH2             9.2230096015      -34.1751057466        5.3921553365  SOLV      4735            0.0000000000
     14318      4746  TIP3      H1              9.0274596015      -33.5694257466        4.6772153365  SOLV      4735            0.0000000000
     14319      4746  TIP3      H2              9.4042696015      -35.0085857466        4.9577853365  SOLV      4735            0.0000000000
     14320      4747  TIP3      OH2             0.4358296015      -33.9378357466       10.7163053365  SOLV      4736            0.0000000000
     14321      4747  TIP3      H1              0.3977696015      -33.5376757466       11.5850153365  SOLV      4736            0.0000000000
     14322      4747  TIP3      H2             -0.0550603985      -34.7545957466       10.8065953365  SOLV      4736            0.0000000000
     14323      4748  TIP3      OH2             3.8015696015      -36.5636057466       -2.4850946635  SOLV      4737            0.0000000000
     14324      4748  TIP3      H1              3.3706396015      -37.0085957466       -1.7553546635  SOLV      4737            0.0000000000
     14325      4748  TIP3      H2              3.0834396015      -36.1919757466       -2.9973446635  SOLV      4737            0.0000000000
     14326      4749  TIP3      OH2            -1.6818803985      -36.0754557466       -0.0091846635  SOLV      4738            0.0000000000
     14327      4749  TIP3      H1             -1.2077103985      -35.4844657466       -0.5940946635  SOLV      4738            0.0000000000
     14328      4749  TIP3      H2             -2.3992403985      -35.5451657466        0.3378253365  SOLV      4738            0.0000000000
     14329      4750  TIP3      OH2             8.4869296015      -32.5369757466       10.0633953365  SOLV      4739            0.0000000000
     14330      4750  TIP3      H1              8.8104096015      -33.1680057466        9.4204453365  SOLV      4739            0.0000000000
     14331      4750  TIP3      H2              8.0468596015      -33.0717557466       10.7241353365  SOLV      4739            0.0000000000
     14332      4751  TIP3      OH2             5.2642196015      -36.6094257466        4.8475153365  SOLV      4740            0.0000000000
     14333      4751  TIP3      H1              4.3533296015      -36.5527457466        5.1361153365  SOLV      4740            0.0000000000
     14334      4751  TIP3      H2              5.7695096015      -36.6698757466        5.6582353365  SOLV      4740            0.0000000000
     14335      4752  TIP3      OH2             0.0925596015      -34.9807957466        3.6742753365  SOLV      4741            0.0000000000
     14336      4752  TIP3      H1             -0.7966403985      -34.8812457466        3.3342353365  SOLV      4741            0.0000000000
     14337      4752  TIP3      H2              0.3890496015      -35.8224957466        3.3280653365  SOLV      4741            0.0000000000
     14338      4753  TIP3      OH2             3.7457396015      -34.9805357466        1.3307353365  SOLV      4742            0.0000000000
     14339      4753  TIP3      H1              4.6772896015      -34.8515357466        1.5090453365  SOLV      4742            0.0000000000
     14340      4753  TIP3      H2              3.5307696015      -34.3111057466        0.6812053365  SOLV      4742            0.0000000000
     14341      4754  TIP3      OH2             2.4197596015      -33.7863157466       -1.1026546635  SOLV      4743            0.0000000000
     14342      4754  TIP3      H1              1.8772696015      -34.1659357466       -1.7938946635  SOLV      4743            0.0000000000
     14343      4754  TIP3      H2              3.2532496015      -33.5918457466       -1.5312446635  SOLV      4743            0.0000000000
     14344      4755  TIP3      OH2            12.9569196015      -21.7032557466       14.3884553365  SOLV      4744            0.0000000000
     14345      4755  TIP3      H1             13.1567896015      -21.2790657466       13.5539853365  SOLV      4744            0.0000000000
     14346      4755  TIP3      H2             13.6122896015      -21.3594357466       14.9954953365  SOLV      4744            0.0000000000
     14347      4756  TIP3      OH2             0.5548996015      -29.2291257466       13.9965053365  SOLV      4745            0.0000000000
     14348      4756  TIP3      H1              1.2871396015      -28.9745357466       14.5579553365  SOLV      4745            0.0000000000
     14349      4756  TIP3      H2             -0.2252303985      -29.0245857466       14.5120453365  SOLV      4745            0.0000000000
     14350      4757  TIP3      OH2             6.5841896015      -33.8221257466        6.7344753365  SOLV      4746            0.0000000000
     14351      4757  TIP3      H1              7.1485296015      -34.3684657466        6.1874353365  SOLV      4746            0.0000000000
     14352      4757  TIP3      H2              6.4365296015      -34.3439357466        7.5232353365  SOLV      4746            0.0000000000
     14353      4758  TIP3      OH2             5.2107796015      -35.4335157466        9.1485153365  SOLV      4747            0.0000000000
     14354      4758  TIP3      H1              4.3753096015      -34.9795657466        9.2587553365  SOLV      4747            0.0000000000
     14355      4758  TIP3      H2              5.7348396015      -35.1576657466        9.9005053365  SOLV      4747            0.0000000000
     14356      4759  TIP3      OH2             5.7550396015      -29.2207457466        0.8331553365  SOLV      4748            0.0000000000
     14357      4759  TIP3      H1              5.0101396015      -29.7282157466        0.5109453365  SOLV      4748            0.0000000000
     14358      4759  TIP3      H2              5.6207596015      -29.1719457466        1.7796353365  SOLV      4748            0.0000000000
     14359      4760  TIP3      OH2            12.9049296015      -30.0879257466        9.6199153365  SOLV      4749            0.0000000000
     14360      4760  TIP3      H1             13.5468096015      -29.6312957466        9.0761353365  SOLV      4749            0.0000000000
     14361      4760  TIP3      H2             12.0746196015      -29.9746857466        9.1573253365  SOLV      4749            0.0000000000
     14362      4761  TIP3      OH2             9.6527196015      -36.4067557466       -0.9675846635  SOLV      4750            0.0000000000
     14363      4761  TIP3      H1              8.7141396015      -36.2951957466       -1.1187046635  SOLV      4750            0.0000000000
     14364      4761  TIP3      H2              9.9499296015      -35.5500657466       -0.6610146635  SOLV      4750            0.0000000000
     14365      4762  TIP3      OH2             7.2742496015      -29.0364157466       12.0700653365  SOLV      4751            0.0000000000
     14366      4762  TIP3      H1              6.9288596015      -29.4181757466       12.8770253365  SOLV      4751            0.0000000000
     14367      4762  TIP3      H2              7.0742596015      -28.1030557466       12.1413553365  SOLV      4751            0.0000000000
     14368      4763  TIP3      OH2            10.3710696015      -34.5394857466        0.6931553365  SOLV      4752            0.0000000000
     14369      4763  TIP3      H1             11.2629696015      -34.6769857466        1.0122753365  SOLV      4752            0.0000000000
     14370      4763  TIP3      H2             10.4274296015      -33.7488757466        0.1565053365  SOLV      4752            0.0000000000
     14371      4764  TIP3      OH2             0.8798696015      -29.9257457466        6.6029453365  SOLV      4753            0.0000000000
     14372      4764  TIP3      H1              1.6245896015      -29.9281757466        6.0015953365  SOLV      4753            0.0000000000
     14373      4764  TIP3      H2              0.9575296015      -30.7493657466        7.0844553365  SOLV      4753            0.0000000000
     14374      4765  TIP3      OH2             7.8804496015      -27.7623157466       -0.1413846635  SOLV      4754            0.0000000000
     14375      4765  TIP3      H1              7.5852896015      -26.9355257466        0.2400953365  SOLV      4754            0.0000000000
     14376      4765  TIP3      H2              7.1774496015      -28.3816257466        0.0547553365  SOLV      4754            0.0000000000
     14377      4766  TIP3      OH2            -2.1121603985      -31.4650557466       11.9177953365  SOLV      4755            0.0000000000
     14378      4766  TIP3      H1             -1.8893003985      -31.8830957466       12.7495453365  SOLV      4755            0.0000000000
     14379      4766  TIP3      H2             -2.7141503985      -32.0775557466       11.4950753365  SOLV      4755            0.0000000000
     14380      4767  TIP3      OH2             4.9043296015      -31.9480657466       14.1307653365  SOLV      4756            0.0000000000
     14381      4767  TIP3      H1              4.6084096015      -32.1137657466       13.2356753365  SOLV      4756            0.0000000000
     14382      4767  TIP3      H2              5.8358496015      -32.1680357466       14.1201553365  SOLV      4756            0.0000000000
     14383      4768  TIP3      OH2             9.5246096015      -26.5748657466       12.0205653365  SOLV      4757            0.0000000000
     14384      4768  TIP3      H1              8.6240396015      -26.3916057466       11.7529553365  SOLV      4757            0.0000000000
     14385      4768  TIP3      H2              9.5587196015      -26.3159357466       12.9414453365  SOLV      4757            0.0000000000
     14386      4769  TIP3      OH2            15.2559396015      -34.3300757466        0.3878253365  SOLV      4758            0.0000000000
     14387      4769  TIP3      H1             14.7015696015      -34.7262757466       -0.2844246635  SOLV      4758            0.0000000000
     14388      4769  TIP3      H2             15.3562996015      -33.4195557466        0.1101553365  SOLV      4758            0.0000000000
     14389      4770  TIP3      OH2            15.2191396015      -28.5299057466       13.2249753365  SOLV      4759            0.0000000000
     14390      4770  TIP3      H1             14.3679896015      -28.2915257466       12.8576153365  SOLV      4759            0.0000000000
     14391      4770  TIP3      H2             15.8094796015      -28.5465857466       12.4716853365  SOLV      4759            0.0000000000
     14392      4771  TIP3      OH2            13.5511096015      -25.5440357466        0.8530353365  SOLV      4760            0.0000000000
     14393      4771  TIP3      H1             13.1782196015      -26.3696557466        1.1620953365  SOLV      4760            0.0000000000
     14394      4771  TIP3      H2             13.8284596015      -25.7270957466       -0.0446246635  SOLV      4760            0.0000000000
     14395      4772  TIP3      OH2            10.7114996015      -30.7360857466        7.8742253365  SOLV      4761            0.0000000000
     14396      4772  TIP3      H1              9.7831896015      -30.9678957466        7.8471553365  SOLV      4761            0.0000000000
     14397      4772  TIP3      H2             11.1626096015      -31.5131057466        7.5441053365  SOLV      4761            0.0000000000
     14398      4773  TIP3      OH2             3.2548096015      -26.4079257466        4.0070953365  SOLV      4762            0.0000000000
     14399      4773  TIP3      H1              3.7820296015      -25.6344857466        3.8069753365  SOLV      4762            0.0000000000
     14400      4773  TIP3      H2              2.3746596015      -26.1830057466        3.7054953365  SOLV      4762            0.0000000000
     14401      4774  TIP3      OH2            -0.9904203985      -31.5455157466       -1.4056646635  SOLV      4763            0.0000000000
     14402      4774  TIP3      H1             -0.3744303985      -30.9187957466       -1.0261846635  SOLV      4763            0.0000000000
     14403      4774  TIP3      H2             -1.8521603985      -31.2295357466       -1.1340146635  SOLV      4763            0.0000000000
     14404      4775  TIP3      OH2             4.6820396015      -28.7449357466        3.5835253365  SOLV      4764            0.0000000000
     14405      4775  TIP3      H1              4.4410396015      -27.8194957466        3.6250553365  SOLV      4764            0.0000000000
     14406      4775  TIP3      H2              3.9413996015      -29.2038057466        3.9799153365  SOLV      4764            0.0000000000
     14407      4776  TIP3      OH2             5.1966996015      -24.5955757466        9.8986353365  SOLV      4765            0.0000000000
     14408      4776  TIP3      H1              5.5591696015      -23.7410157466        9.6650753365  SOLV      4765            0.0000000000
     14409      4776  TIP3      H2              5.7282196015      -24.8874157466       10.6392653365  SOLV      4765            0.0000000000
     14410      4777  TIP3      OH2             3.3651196015      -23.7231757466        3.1287453365  SOLV      4766            0.0000000000
     14411      4777  TIP3      H1              2.4151696015      -23.6174357466        3.1800753365  SOLV      4766            0.0000000000
     14412      4777  TIP3      H2              3.7169296015      -22.9024357466        3.4734953365  SOLV      4766            0.0000000000
     14413      4778  TIP3      OH2             8.7407796015      -28.4965057466        9.5991953365  SOLV      4767            0.0000000000
     14414      4778  TIP3      H1              8.3149096015      -28.7243357466       10.4255953365  SOLV      4767            0.0000000000
     14415      4778  TIP3      H2              9.3213596015      -29.2353257466        9.4167253365  SOLV      4767            0.0000000000
     14416      4779  TIP3      OH2            10.9436696015      -27.5674557466       -1.3269046635  SOLV      4768            0.0000000000
     14417      4779  TIP3      H1             11.2969796015      -27.9474757466       -0.5225546635  SOLV      4768            0.0000000000
     14418      4779  TIP3      H2              9.9950196015      -27.6609757466       -1.2399746635  SOLV      4768            0.0000000000
     14419      4780  TIP3      OH2            11.3991996015      -23.9445557466       12.0686753365  SOLV      4769            0.0000000000
     14420      4780  TIP3      H1             10.7975196015      -24.5002657466       11.5733053365  SOLV      4769            0.0000000000
     14421      4780  TIP3      H2             11.6805696015      -23.2775757466       11.4424153365  SOLV      4769            0.0000000000
     14422      4781  TIP3      OH2            15.4471096015      -23.0882057466       -1.1258846635  SOLV      4770            0.0000000000
     14423      4781  TIP3      H1             16.1908996015      -22.5021557466       -1.2657246635  SOLV      4770            0.0000000000
     14424      4781  TIP3      H2             14.7529196015      -22.5196257466       -0.7926446635  SOLV      4770            0.0000000000
     14425      4782  TIP3      OH2            11.8095996015      -28.8952557466        0.8998853365  SOLV      4771            0.0000000000
     14426      4782  TIP3      H1             11.5323596015      -29.6233257466        1.4559953365  SOLV      4771            0.0000000000
     14427      4782  TIP3      H2             12.7368996015      -28.7760557466        1.1051453365  SOLV      4771            0.0000000000
     14428      4783  TIP3      OH2            -0.8270103985      -24.9073457466        9.9108753365  SOLV      4772            0.0000000000
     14429      4783  TIP3      H1             -0.6099803985      -25.8391057466        9.8798453365  SOLV      4772            0.0000000000
     14430      4783  TIP3      H2             -0.5806603985      -24.6328457466       10.7941553365  SOLV      4772            0.0000000000
     14431      4784  TIP3      OH2             5.0344496015      -26.4558457466       -2.8799046635  SOLV      4773            0.0000000000
     14432      4784  TIP3      H1              5.2734296015      -27.2040357466       -3.4270146635  SOLV      4773            0.0000000000
     14433      4784  TIP3      H2              4.7655796015      -26.8436757466       -2.0471246635  SOLV      4773            0.0000000000
     14434      4785  TIP3      OH2             3.9715096015      -26.8854657466       -0.4236446635  SOLV      4774            0.0000000000
     14435      4785  TIP3      H1              4.1183096015      -27.4054857466        0.3664453365  SOLV      4774            0.0000000000
     14436      4785  TIP3      H2              3.9686796015      -25.9787057466       -0.1170546635  SOLV      4774            0.0000000000
     14437      4786  TIP3      OH2             0.4246196015      -29.6331357466        0.0868953365  SOLV      4775            0.0000000000
     14438      4786  TIP3      H1             -0.2614503985      -29.2808857466        0.6538653365  SOLV      4775            0.0000000000
     14439      4786  TIP3      H2              0.9474096015      -28.8701757466       -0.1596746635  SOLV      4775            0.0000000000
     14440      4787  TIP3      OH2             6.7092296015      -25.1881057466        0.3257753365  SOLV      4776            0.0000000000
     14441      4787  TIP3      H1              5.8928396015      -24.6911357466        0.3782053365  SOLV      4776            0.0000000000
     14442      4787  TIP3      H2              7.2388596015      -24.7127557466       -0.3143446635  SOLV      4776            0.0000000000
     14443      4788  TIP3      OH2             6.2406096015      -35.5907057466        2.2978653365  SOLV      4777            0.0000000000
     14444      4788  TIP3      H1              7.0528696015      -35.0863857466        2.3440353365  SOLV      4777            0.0000000000
     14445      4788  TIP3      H2              5.9959096015      -35.7357357466        3.2118253365  SOLV      4777            0.0000000000
     14446      4789  TIP3      OH2             6.7762496015      -34.6044357466       11.4825253365  SOLV      4778            0.0000000000
     14447      4789  TIP3      H1              6.8952796015      -34.0308957466       12.2395653365  SOLV      4778            0.0000000000
     14448      4789  TIP3      H2              7.4317096015      -35.2924957466       11.5973053365  SOLV      4778            0.0000000000
     14449      4790  TIP3      OH2             4.0475396015      -24.1443857466        0.3074653365  SOLV      4779            0.0000000000
     14450      4790  TIP3      H1              4.2084096015      -23.3446357466       -0.1932746635  SOLV      4779            0.0000000000
     14451      4790  TIP3      H2              3.8503196015      -23.8377857466        1.1925253365  SOLV      4779            0.0000000000
     14452      4791  TIP3      OH2            12.9808296015      -36.6974057466       12.3174953365  SOLV      4780            0.0000000000
     14453      4791  TIP3      H1             12.0644096015      -36.4352357466       12.2298653365  SOLV      4780            0.0000000000
     14454      4791  TIP3      H2             13.3163296015      -36.7005057466       11.4210253365  SOLV      4780            0.0000000000
     14455      4792  TIP3      OH2            11.5829296015      -32.9473057466        6.4132253365  SOLV      4781            0.0000000000
     14456      4792  TIP3      H1             10.7853696015      -33.3622857466        6.0847253365  SOLV      4781            0.0000000000
     14457      4792  TIP3      H2             12.0280396015      -33.6379357466        6.9042753365  SOLV      4781            0.0000000000
     14458      4793  TIP3      OH2             1.0405096015      -27.0192457466       -1.0163246635  SOLV      4782            0.0000000000
     14459      4793  TIP3      H1              1.6326596015      -26.3197657466       -0.7400846635  SOLV      4782            0.0000000000
     14460      4793  TIP3      H2              1.4998096015      -27.4522957466       -1.7358646635  SOLV      4782            0.0000000000
     14461      4794  TIP3      OH2            -0.6435703985      -34.3549457466       -1.9003846635  SOLV      4783            0.0000000000
     14462      4794  TIP3      H1             -0.6883103985      -33.4156357466       -1.7216846635  SOLV      4783            0.0000000000
     14463      4794  TIP3      H2             -1.5312503985      -34.5904557466       -2.1701746635  SOLV      4783            0.0000000000
     14464      4795  TIP3      OH2            12.6693896015      -23.6910557466        8.0355753365  SOLV      4784            0.0000000000
     14465      4795  TIP3      H1             12.5138196015      -23.0126157466        7.3785053365  SOLV      4784            0.0000000000
     14466      4795  TIP3      H2             13.6020296015      -23.6191257466        8.2386353365  SOLV      4784            0.0000000000
     14467      4796  TIP3      OH2            -0.9050403985      -25.6325757466        2.9332953365  SOLV      4785            0.0000000000
     14468      4796  TIP3      H1             -1.7371803985      -25.1603057466        2.9604353365  SOLV      4785            0.0000000000
     14469      4796  TIP3      H2             -0.3592103985      -25.1228157466        2.3346053365  SOLV      4785            0.0000000000
     14470      4797  TIP3      OH2            -1.6166703985      -23.0202057466       14.2630953365  SOLV      4786            0.0000000000
     14471      4797  TIP3      H1             -1.0764503985      -23.2368057466       15.0230153365  SOLV      4786            0.0000000000
     14472      4797  TIP3      H2             -2.0978703985      -23.8256057466       14.0733453365  SOLV      4786            0.0000000000
     14473      4798  TIP3      OH2             2.9806696015      -24.1007657466       15.8835153365  SOLV      4787            0.0000000000
     14474      4798  TIP3      H1              3.7483896015      -24.5596857466       16.2244353365  SOLV      4787            0.0000000000
     14475      4798  TIP3      H2              2.9592896015      -24.3267857466       14.9536353365  SOLV      4787            0.0000000000
     14476      4799  TIP3      OH2             7.0726296015      -24.5927057466       -2.7413046635  SOLV      4788            0.0000000000
     14477      4799  TIP3      H1              6.4287296015      -25.2238457466       -2.4199346635  SOLV      4788            0.0000000000
     14478      4799  TIP3      H2              7.8344596015      -25.1239057466       -2.9729546635  SOLV      4788            0.0000000000
     14479      4800  TIP3      OH2            11.6769196015      -24.7757157466       -2.5075046635  SOLV      4789            0.0000000000
     14480      4800  TIP3      H1             11.9599596015      -25.5701957466       -2.0548146635  SOLV      4789            0.0000000000
     14481      4800  TIP3      H2             12.4167096015      -24.5426157466       -3.0683946635  SOLV      4789            0.0000000000
     14482      4801  TIP3      OH2            -1.7097203985      -29.2097957466       15.2175253365  SOLV      4790            0.0000000000
     14483      4801  TIP3      H1             -1.5656703985      -30.1117257466       14.9311953365  SOLV      4790            0.0000000000
     14484      4801  TIP3      H2             -2.4819803985      -28.9235857466       14.7297553365  SOLV      4790            0.0000000000
     14485      4802  TIP3      OH2             2.6316496015      -28.8662257466       -2.6500146635  SOLV      4791            0.0000000000
     14486      4802  TIP3      H1              2.6960596015      -29.6602657466       -2.1193746635  SOLV      4791            0.0000000000
     14487      4802  TIP3      H2              3.2845696015      -28.9849457466       -3.3398146635  SOLV      4791            0.0000000000
     14488      4803  TIP3      OH2             4.9458896015      -29.2399857466       14.6501653365  SOLV      4792            0.0000000000
     14489      4803  TIP3      H1              4.6172696015      -28.9691757466       13.7929053365  SOLV      4792            0.0000000000
     14490      4803  TIP3      H2              5.0977096015      -30.1810057466       14.5626653365  SOLV      4792            0.0000000000
     14491      4804  TIP3      OH2             7.9839896015      -27.8190557466       -2.9142146635  SOLV      4793            0.0000000000
     14492      4804  TIP3      H1              7.7153996015      -27.6388457466       -2.0133246635  SOLV      4793            0.0000000000
     14493      4804  TIP3      H2              7.7775496015      -28.7444357466       -3.0456346635  SOLV      4793            0.0000000000
     14494      4805  TIP3      OH2            10.6804096015      -29.3242557466       12.0333953365  SOLV      4794            0.0000000000
     14495      4805  TIP3      H1             11.4258896015      -28.7358857466       11.9137953365  SOLV      4794            0.0000000000
     14496      4805  TIP3      H2              9.9230896015      -28.7422857466       12.0967053365  SOLV      4794            0.0000000000
     14497      4806  TIP3      OH2            -0.8770703985      -32.0094657466       14.6374553365  SOLV      4795            0.0000000000
     14498      4806  TIP3      H1             -0.4689503985      -32.8668057466       14.5165153365  SOLV      4795            0.0000000000
     14499      4806  TIP3      H2             -1.1373103985      -31.9953357466       15.5584853365  SOLV      4795            0.0000000000
     14500      4807  TIP3      OH2             3.7810296015      -30.8936057466       -0.3442146635  SOLV      4796            0.0000000000
     14501      4807  TIP3      H1              3.3212296015      -31.3777757466        0.3416353365  SOLV      4796            0.0000000000
     14502      4807  TIP3      H2              4.0358996015      -31.5620657466       -0.9801646635  SOLV      4796            0.0000000000
     14503      4808  TIP3      OH2             3.0699596015      -33.0008957466       12.0117453365  SOLV      4797            0.0000000000
     14504      4808  TIP3      H1              2.4515696015      -32.3262357466       12.2922153365  SOLV      4797            0.0000000000
     14505      4808  TIP3      H2              3.4140796015      -32.6795057466       11.1783653365  SOLV      4797            0.0000000000
     14506      4809  TIP3      OH2             4.8520696015      -32.6504257466       -2.0818946635  SOLV      4798            0.0000000000
     14507      4809  TIP3      H1              4.6715696015      -32.8053057466       -3.0090646635  SOLV      4798            0.0000000000
     14508      4809  TIP3      H2              5.8021196015      -32.5425557466       -2.0371046635  SOLV      4798            0.0000000000
     14509      4810  TIP3      OH2             8.0897796015      -30.5293657466       15.2892253365  SOLV      4799            0.0000000000
     14510      4810  TIP3      H1              9.0428996015      -30.4454557466       15.2618253365  SOLV      4799            0.0000000000
     14511      4810  TIP3      H2              7.9292396015      -31.2411857466       15.9087153365  SOLV      4799            0.0000000000
     14512      4811  TIP3      OH2            14.2418996015      -30.2960057466       -2.6360846635  SOLV      4800            0.0000000000
     14513      4811  TIP3      H1             13.9683796015      -30.7204557466       -3.4492546635  SOLV      4800            0.0000000000
     14514      4811  TIP3      H2             14.2813096015      -29.3645557466       -2.8530446635  SOLV      4800            0.0000000000
     14515      4812  TIP3      OH2             3.4093296015      -35.6458157466       13.0940553365  SOLV      4801            0.0000000000
     14516      4812  TIP3      H1              3.5594196015      -36.3746857466       12.4920253365  SOLV      4801            0.0000000000
     14517      4812  TIP3      H2              3.4115696015      -34.8686457466       12.5352753365  SOLV      4801            0.0000000000
     14518      4813  TIP3      OH2             5.4037396015      -31.8366157466       10.8263153365  SOLV      4802            0.0000000000
     14519      4813  TIP3      H1              6.1542196015      -31.9928657466       10.2530953365  SOLV      4802            0.0000000000
     14520      4813  TIP3      H2              5.0645696015      -30.9849557466       10.5508653365  SOLV      4802            0.0000000000
     14521      4814  TIP3      OH2             9.8193596015      -34.0214357466       15.8548453365  SOLV      4803            0.0000000000
     14522      4814  TIP3      H1             10.0114896015      -34.9524957466       15.7432953365  SOLV      4803            0.0000000000
     14523      4814  TIP3      H2             10.6769896015      -33.5964857466       15.8443853365  SOLV      4803            0.0000000000
     14524      4815  TIP3      OH2            11.1360796015      -31.2329157466       13.9321153365  SOLV      4804            0.0000000000
     14525      4815  TIP3      H1             10.8545796015      -30.5234557466       13.3544953365  SOLV      4804            0.0000000000
     14526      4815  TIP3      H2             12.0785096015      -31.3056157466       13.7812353365  SOLV      4804            0.0000000000
     14527      4816  TIP3      OH2             1.8879596015      -34.4474657466       15.0056153365  SOLV      4805            0.0000000000
     14528      4816  TIP3      H1              1.1208596015      -34.9799857466       14.7953753365  SOLV      4805            0.0000000000
     14529      4816  TIP3      H2              2.5668596015      -34.7574257466       14.4062453365  SOLV      4805            0.0000000000
     14530      4817  TIP3      OH2             5.8914996015      -35.4981257466       14.5819953365  SOLV      4806            0.0000000000
     14531      4817  TIP3      H1              5.6560396015      -35.7174557466       15.4834853365  SOLV      4806            0.0000000000
     14532      4817  TIP3      H2              5.1081896015      -35.7050057466       14.0722453365  SOLV      4806            0.0000000000
     14533      4818  TIP3      OH2             8.6071596015      -36.3707757466       13.6573453365  SOLV      4807            0.0000000000
     14534      4818  TIP3      H1              7.6596996015      -36.3388057466       13.7896753365  SOLV      4807            0.0000000000
     14535      4818  TIP3      H2              8.9198296015      -36.9960657466       14.3111653365  SOLV      4807            0.0000000000
     14536      4819  TIP3      OH2             4.7492396015      -21.9600557466       -1.0805346635  SOLV      4808            0.0000000000
     14537      4819  TIP3      H1              5.6823096015      -21.8021857466       -0.9366946635  SOLV      4808            0.0000000000
     14538      4819  TIP3      H2              4.4851196015      -21.2847557466       -1.7053846635  SOLV      4808            0.0000000000
     14539      4820  TIP3      OH2            -1.6822703985      -27.3236757466       -1.5977246635  SOLV      4809            0.0000000000
     14540      4820  TIP3      H1             -0.7683503985      -27.2447857466       -1.3243346635  SOLV      4809            0.0000000000
     14541      4820  TIP3      H2             -1.6749603985      -28.0107157466       -2.2641646635  SOLV      4809            0.0000000000
     14542      4821  TIP3      OH2            -3.0332103985      -21.9308257466        3.4796653365  SOLV      4810            0.0000000000
     14543      4821  TIP3      H1             -3.6805003985      -22.3926557466        2.9467853365  SOLV      4810            0.0000000000
     14544      4821  TIP3      H2             -2.6787503985      -22.6024957466        4.0622853365  SOLV      4810            0.0000000000
     14545      4822  TIP3      OH2            -2.1632903985      -23.8501257466        5.2842853365  SOLV      4811            0.0000000000
     14546      4822  TIP3      H1             -2.4976103985      -24.7303957466        5.4563053365  SOLV      4811            0.0000000000
     14547      4822  TIP3      H2             -1.9410503985      -23.5046257466        6.1488453365  SOLV      4811            0.0000000000
     14548      4823  TIP3      OH2            15.3851896015      -23.0404857466        8.2647653365  SOLV      4812            0.0000000000
     14549      4823  TIP3      H1             15.3638596015      -22.8556457466        9.2037053365  SOLV      4812            0.0000000000
     14550      4823  TIP3      H2             16.0758096015      -22.4720857466        7.9239053365  SOLV      4812            0.0000000000
     14551      4824  TIP3      OH2            14.9484796015      -23.4733757466       11.1866753365  SOLV      4813            0.0000000000
     14552      4824  TIP3      H1             14.4613496015      -24.2089657466       10.8154153365  SOLV      4813            0.0000000000
     14553      4824  TIP3      H2             15.4977496015      -23.8669857466       11.8646153365  SOLV      4813            0.0000000000
     14554      4825  TIP3      OH2            13.3992096015      -27.6835657466       15.8247053365  SOLV      4814            0.0000000000
     14555      4825  TIP3      H1             12.5333196015      -27.7885957466       16.2189353365  SOLV      4814            0.0000000000
     14556      4825  TIP3      H2             13.7757996015      -26.9252357466       16.2711753365  SOLV      4814            0.0000000000
     14557      4826  TIP3      OH2            14.7001796015      -29.4271957466        1.3389553365  SOLV      4815            0.0000000000
     14558      4826  TIP3      H1             15.5503196015      -29.0061057466        1.4661153365  SOLV      4815            0.0000000000
     14559      4826  TIP3      H2             14.7056896015      -30.1671857466        1.9460953365  SOLV      4815            0.0000000000
     14560      4827  TIP3      OH2            15.0947396015      -31.3734557466        3.1625253365  SOLV      4816            0.0000000000
     14561      4827  TIP3      H1             14.3681996015      -31.8531957466        3.5602853365  SOLV      4816            0.0000000000
     14562      4827  TIP3      H2             15.6760696015      -31.1679857466        3.8946853365  SOLV      4816            0.0000000000
     14563      4828  TIP3      OH2            14.8538596015      -28.5887057466        8.1102853365  SOLV      4817            0.0000000000
     14564      4828  TIP3      H1             15.6872796015      -28.9667057466        7.8296453365  SOLV      4817            0.0000000000
     14565      4828  TIP3      H2             14.9658896015      -27.6455857466        7.9911953365  SOLV      4817            0.0000000000
     14566      4829  TIP3      OH2            13.3400896015      -25.7109557466       10.4171253365  SOLV      4818            0.0000000000
     14567      4829  TIP3      H1             12.6926196015      -25.3858057466       11.0426453365  SOLV      4818            0.0000000000
     14568      4829  TIP3      H2             12.8224896015      -26.1511857466        9.7429553365  SOLV      4818            0.0000000000
     14569      4830  TIP3      OH2            15.3630496015      -31.4726057466       -0.4463446635  SOLV      4819            0.0000000000
     14570      4830  TIP3      H1             14.8411596015      -31.1161957466       -1.1652546635  SOLV      4819            0.0000000000
     14571      4830  TIP3      H2             15.3299696015      -30.7978257466        0.2317453365  SOLV      4819            0.0000000000
     14572      4831  TIP3      OH2            13.7119496015      -34.2330457466       -1.8956346635  SOLV      4820            0.0000000000
     14573      4831  TIP3      H1             13.8083896015      -33.5663457466       -2.5756646635  SOLV      4820            0.0000000000
     14574      4831  TIP3      H2             13.5719096015      -35.0484157466       -2.3770846635  SOLV      4820            0.0000000000
     14575      4832  TIP3      OH2            12.8814196015      -32.8528057466        3.7253953365  SOLV      4821            0.0000000000
     14576      4832  TIP3      H1             12.7312996015      -33.7979457466        3.7051753365  SOLV      4821            0.0000000000
     14577      4832  TIP3      H2             12.5278696015      -32.5716657466        4.5693053365  SOLV      4821            0.0000000000
     14578      4833  TIP3      OH2            -2.0833403985      -30.7745857466        7.7357753365  SOLV      4822            0.0000000000
     14579      4833  TIP3      H1             -1.8990503985      -30.8564157466        6.8000653365  SOLV      4822            0.0000000000
     14580      4833  TIP3      H2             -1.2340503985      -30.8988857466        8.1594153365  SOLV      4822            0.0000000000
     14581      4834  TIP3      OH2            13.7377096015      -30.8824757466       13.3642253365  SOLV      4823            0.0000000000
     14582      4834  TIP3      H1             14.3204396015      -31.6172457466       13.5559453365  SOLV      4823            0.0000000000
     14583      4834  TIP3      H2             14.3016396015      -30.1104457466       13.4108053365  SOLV      4823            0.0000000000
     14584      4835  TIP3      OH2            15.2344196015      -32.9798957466       14.0487653365  SOLV      4824            0.0000000000
     14585      4835  TIP3      H1             14.3710896015      -33.3586857466       13.8832353365  SOLV      4824            0.0000000000
     14586      4835  TIP3      H2             15.8387896015      -33.7184157466       13.9743453365  SOLV      4824            0.0000000000
     14587      4836  TIP3      OH2            12.5918996015      -35.2702257466        2.1879053365  SOLV      4825            0.0000000000
     14588      4836  TIP3      H1             12.8716096015      -36.1771857466        2.3120753365  SOLV      4825            0.0000000000
     14589      4836  TIP3      H2             13.3510696015      -34.8360757466        1.7988253365  SOLV      4825            0.0000000000
     14590      4837  TIP3      OH2            13.2037296015      -34.6884857466        7.6237953365  SOLV      4826            0.0000000000
     14591      4837  TIP3      H1             14.1365296015      -34.4764957466        7.5893953365  SOLV      4826            0.0000000000
     14592      4837  TIP3      H2             12.9684796015      -34.5872757466        8.5460953365  SOLV      4826            0.0000000000
     14593      4838  TIP3      OH2            13.2329196015      -33.9519557466       10.3997353365  SOLV      4827            0.0000000000
     14594      4838  TIP3      H1             12.3900496015      -33.6839157466       10.7657153365  SOLV      4827            0.0000000000
     14595      4838  TIP3      H2             13.6753496015      -33.1297657466       10.1888453365  SOLV      4827            0.0000000000
     14596      4839  TIP3      OH2            -2.9605803985      -34.1926257466        7.8369653365  SOLV      4828            0.0000000000
     14597      4839  TIP3      H1             -2.4686003985      -34.4135757466        7.0461653365  SOLV      4828            0.0000000000
     14598      4839  TIP3      H2             -2.5984903985      -33.3522857466        8.1179153365  SOLV      4828            0.0000000000
     14599      4840  TIP3      OH2            12.1237896015      -22.9505457466        3.8369453365  SOLV      4829            0.0000000000
     14600      4840  TIP3      H1             12.7760796015      -23.2983357466        3.2288553365  SOLV      4829            0.0000000000
     14601      4840  TIP3      H2             12.6341696015      -22.4622257466        4.4829153365  SOLV      4829            0.0000000000
     14602      4841  TIP3      OH2            -0.4914603985      -26.0214057466       14.3800353365  SOLV      4830            0.0000000000
     14603      4841  TIP3      H1             -1.3122103985      -25.8467557466       13.9195053365  SOLV      4830            0.0000000000
     14604      4841  TIP3      H2             -0.7436803985      -26.0949357466       15.3004753365  SOLV      4830            0.0000000000
     14605      4842  TIP3      OH2             2.4628296015      -25.0472857466       10.6384353365  SOLV      4831            0.0000000000
     14606      4842  TIP3      H1              2.0379396015      -24.2374357466       10.3558953365  SOLV      4831            0.0000000000
     14607      4842  TIP3      H2              3.3671096015      -24.9618757466       10.3364153365  SOLV      4831            0.0000000000
     14608      4843  TIP3      OH2             6.7739696015      -23.6482857466       13.5978053365  SOLV      4832            0.0000000000
     14609      4843  TIP3      H1              6.9587196015      -23.9816757466       14.4758353365  SOLV      4832            0.0000000000
     14610      4843  TIP3      H2              7.6204196015      -23.3384257466       13.2757253365  SOLV      4832            0.0000000000
     14611      4844  TIP3      OH2             9.1190096015      -22.3623957466       12.8419453365  SOLV      4833            0.0000000000
     14612      4844  TIP3      H1              9.7958996015      -22.9951657466       12.6018653365  SOLV      4833            0.0000000000
     14613      4844  TIP3      H2              9.4408896015      -21.9613457466       13.6492753365  SOLV      4833            0.0000000000
     14614      4845  TIP3      OH2            -0.1355003985      -21.7908957466       10.6859653365  SOLV      4834            0.0000000000
     14615      4845  TIP3      H1             -0.8558603985      -21.3507957466       10.2347353365  SOLV      4834            0.0000000000
     14616      4845  TIP3      H2             -0.5011003985      -22.0414257466       11.5343653365  SOLV      4834            0.0000000000
     14617      4846  TIP3      OH2             2.3317596015      -22.1905057466        9.7156853365  SOLV      4835            0.0000000000
     14618      4846  TIP3      H1              1.4669796015      -22.1186557466       10.1196953365  SOLV      4835            0.0000000000
     14619      4846  TIP3      H2              2.2766596015      -21.6437757466        8.9319353365  SOLV      4835            0.0000000000
     14620      4847  TIP3      OH2             7.0423196015      -22.3026157466        8.8912853365  SOLV      4836            0.0000000000
     14621      4847  TIP3      H1              6.5857196015      -21.7736457466        8.2371253365  SOLV      4836            0.0000000000
     14622      4847  TIP3      H2              7.2051196015      -21.6994757466        9.6165153365  SOLV      4836            0.0000000000
     14623      4848  TIP3      OH2             9.3699496015      -23.4246557466        9.8363153365  SOLV      4837            0.0000000000
     14624      4848  TIP3      H1              8.4653196015      -23.2596357466        9.5705253365  SOLV      4837            0.0000000000
     14625      4848  TIP3      H2              9.7988096015      -22.5714357466        9.7706553365  SOLV      4837            0.0000000000
     14626      4849  TIP3      OH2            11.9741396015      -21.8547457466       10.1310953365  SOLV      4838            0.0000000000
     14627      4849  TIP3      H1             11.7923396015      -20.9388557466        9.9205853365  SOLV      4838            0.0000000000
     14628      4849  TIP3      H2             12.1509196015      -22.2650357466        9.2845553365  SOLV      4838            0.0000000000
     14629      4850  TIP3      OH2            -0.7206903985      -23.1676457466        7.5961453365  SOLV      4839            0.0000000000
     14630      4850  TIP3      H1             -0.7390903985      -23.5931357466        8.4533753365  SOLV      4839            0.0000000000
     14631      4850  TIP3      H2              0.0840996015      -23.4861457466        7.1873653365  SOLV      4839            0.0000000000
     14632      4851  TIP3      OH2             1.4206196015      -24.4577757466        6.2511353365  SOLV      4840            0.0000000000
     14633      4851  TIP3      H1              1.2016896015      -25.3740357466        6.4207353365  SOLV      4840            0.0000000000
     14634      4851  TIP3      H2              2.2448396015      -24.3177357466        6.7172753365  SOLV      4840            0.0000000000
     14635      4852  TIP3      OH2             3.9578696015      -23.9878457466        7.0999353365  SOLV      4841            0.0000000000
     14636      4852  TIP3      H1              4.1704396015      -24.8759457466        6.8130253365  SOLV      4841            0.0000000000
     14637      4852  TIP3      H2              4.0223796015      -24.0220757466        8.0543353365  SOLV      4841            0.0000000000
     14638      4853  TIP3      OH2            -1.4697203985      -23.9437257466        0.7673753365  SOLV      4842            0.0000000000
     14639      4853  TIP3      H1             -2.1547303985      -23.9818357466        0.0998853365  SOLV      4842            0.0000000000
     14640      4853  TIP3      H2             -1.4660003985      -23.0309657466        1.0555853365  SOLV      4842            0.0000000000
     14641      4854  TIP3      OH2             7.3946296015      -22.7342357466       -0.8350046635  SOLV      4843            0.0000000000
     14642      4854  TIP3      H1              8.2606496015      -22.3674957466       -1.0131846635  SOLV      4843            0.0000000000
     14643      4854  TIP3      H2              7.1479096015      -23.1734357466       -1.6489246635  SOLV      4843            0.0000000000
     14644      4855  TIP3      OH2             0.3483996015      -23.0236457466       -2.2074146635  SOLV      4844            0.0000000000
     14645      4855  TIP3      H1              0.0808596015      -22.7373557466       -1.3341046635  SOLV      4844            0.0000000000
     14646      4855  TIP3      H2              1.1196596015      -23.5697257466       -2.0551646635  SOLV      4844            0.0000000000
     14647      4856  TIP3      OH2            13.3212096015      -24.4199657466       13.9942853365  SOLV      4845            0.0000000000
     14648      4856  TIP3      H1             12.5393996015      -24.6061657466       13.4743453365  SOLV      4845            0.0000000000
     14649      4856  TIP3      H2             13.2491996015      -23.4905357466       14.2115353365  SOLV      4845            0.0000000000
     14650      4857  TIP3      OH2            27.7272496015      -30.5335257466        4.0250053365  SOLV      4846            0.0000000000
     14651      4857  TIP3      H1             27.8163596015      -29.5897057466        3.8927153365  SOLV      4846            0.0000000000
     14652      4857  TIP3      H2             27.0890096015      -30.8088857466        3.3669453365  SOLV      4846            0.0000000000
     14653      4858  TIP3      OH2            26.6603796015      -31.2784557466        7.4438253365  SOLV      4847            0.0000000000
     14654      4858  TIP3      H1             26.6221296015      -31.9248257466        8.1487853365  SOLV      4847            0.0000000000
     14655      4858  TIP3      H2             26.3380296015      -31.7450157466        6.6726953365  SOLV      4847            0.0000000000
     14656      4859  TIP3      OH2            19.0288796015      -31.6642457466        9.0368153365  SOLV      4848            0.0000000000
     14657      4859  TIP3      H1             19.0700896015      -32.2899157466        9.7600553365  SOLV      4848            0.0000000000
     14658      4859  TIP3      H2             19.7316496015      -31.0403857466        9.2188553365  SOLV      4848            0.0000000000
     14659      4860  TIP3      OH2            19.9521896015      -27.2143557466        7.5717253365  SOLV      4849            0.0000000000
     14660      4860  TIP3      H1             19.5827096015      -28.0163057466        7.2021553365  SOLV      4849            0.0000000000
     14661      4860  TIP3      H2             20.8932996015      -27.3828657466        7.6180653365  SOLV      4849            0.0000000000
     14662      4861  TIP3      OH2            16.5622396015      -33.5540957466        2.9646053365  SOLV      4850            0.0000000000
     14663      4861  TIP3      H1             16.1145796015      -32.7082257466        2.9462553365  SOLV      4850            0.0000000000
     14664      4861  TIP3      H2             16.0013596015      -34.1336757466        2.4491153365  SOLV      4850            0.0000000000
     14665      4862  TIP3      OH2            17.2728496015      -31.3921357466        5.0904053365  SOLV      4851            0.0000000000
     14666      4862  TIP3      H1             17.4861996015      -32.1619757466        5.6177053365  SOLV      4851            0.0000000000
     14667      4862  TIP3      H2             18.0106096015      -31.3024657466        4.4871653365  SOLV      4851            0.0000000000
     14668      4863  TIP3      OH2            27.4779496015      -23.2352457466        5.9573753365  SOLV      4852            0.0000000000
     14669      4863  TIP3      H1             28.0975896015      -23.9117757466        5.6842953365  SOLV      4852            0.0000000000
     14670      4863  TIP3      H2             27.2696896015      -23.4531657466        6.8658653365  SOLV      4852            0.0000000000
     14671      4864  TIP3      OH2            25.0498196015      -28.8463157466        7.8499253365  SOLV      4853            0.0000000000
     14672      4864  TIP3      H1             25.3536096015      -29.5321757466        7.2553353365  SOLV      4853            0.0000000000
     14673      4864  TIP3      H2             25.7712196015      -28.7274457466        8.4677253365  SOLV      4853            0.0000000000
     14674      4865  TIP3      OH2            21.3453496015      -36.3504357466        5.4498853365  SOLV      4854            0.0000000000
     14675      4865  TIP3      H1             21.3884596015      -35.4905857466        5.0315153365  SOLV      4854            0.0000000000
     14676      4865  TIP3      H2             20.8877596015      -36.9029657466        4.8162053365  SOLV      4854            0.0000000000
     14677      4866  TIP3      OH2            17.9654996015      -33.9538557466        6.2120253365  SOLV      4855            0.0000000000
     14678      4866  TIP3      H1             18.6191596015      -34.5036857466        6.6440353365  SOLV      4855            0.0000000000
     14679      4866  TIP3      H2             17.9894296015      -34.2279557466        5.2952253365  SOLV      4855            0.0000000000
     14680      4867  TIP3      OH2            23.1219496015      -32.4037257466        5.4271753365  SOLV      4856            0.0000000000
     14681      4867  TIP3      H1             23.7380496015      -32.9301857466        5.9365753365  SOLV      4856            0.0000000000
     14682      4867  TIP3      H2             22.5358296015      -33.0438557466        5.0235353365  SOLV      4856            0.0000000000
     14683      4868  TIP3      OH2            27.5245196015      -27.9324857466        3.0678753365  SOLV      4857            0.0000000000
     14684      4868  TIP3      H1             27.2290296015      -28.2552557466        2.2165653365  SOLV      4857            0.0000000000
     14685      4868  TIP3      H2             27.2002996015      -27.0328157466        3.1091353365  SOLV      4857            0.0000000000
     14686      4869  TIP3      OH2            22.7246796015      -29.7570257466        9.8113353365  SOLV      4858            0.0000000000
     14687      4869  TIP3      H1             21.9845896015      -29.1588757466        9.9148553365  SOLV      4858            0.0000000000
     14688      4869  TIP3      H2             23.4386296015      -29.2030657466        9.4956953365  SOLV      4858            0.0000000000
     14689      4870  TIP3      OH2            19.7492696015      -35.5404157466        7.4761853365  SOLV      4859            0.0000000000
     14690      4870  TIP3      H1             20.3628996015      -34.9076557466        7.8494253365  SOLV      4859            0.0000000000
     14691      4870  TIP3      H2             20.2613396015      -36.0129157466        6.8198753365  SOLV      4859            0.0000000000
     14692      4871  TIP3      OH2            21.1321096015      -27.7927257466       10.5984853365  SOLV      4860            0.0000000000
     14693      4871  TIP3      H1             21.1268696015      -26.9133757466       10.2204153365  SOLV      4860            0.0000000000
     14694      4871  TIP3      H2             20.2785196015      -27.8763157466       11.0234753365  SOLV      4860            0.0000000000
     14695      4872  TIP3      OH2            17.2531996015      -28.1219357466        1.3804153365  SOLV      4861            0.0000000000
     14696      4872  TIP3      H1             16.9812896015      -27.8928357466        0.4917053365  SOLV      4861            0.0000000000
     14697      4872  TIP3      H2             17.2987696015      -27.2840557466        1.8409453365  SOLV      4861            0.0000000000
     14698      4873  TIP3      OH2            29.1302896015      -24.7189957466        4.7184253365  SOLV      4862            0.0000000000
     14699      4873  TIP3      H1             29.5555196015      -25.4262057466        4.2333853365  SOLV      4862            0.0000000000
     14700      4873  TIP3      H2             29.4472896015      -23.9177257466        4.3016453365  SOLV      4862            0.0000000000
     14701      4874  TIP3      OH2            26.4484996015      -31.2895257466        1.4770353365  SOLV      4863            0.0000000000
     14702      4874  TIP3      H1             25.7370496015      -30.7545557466        1.1250853365  SOLV      4863            0.0000000000
     14703      4874  TIP3      H2             27.1394596015      -31.2343157466        0.8169253365  SOLV      4863            0.0000000000
     14704      4875  TIP3      OH2            26.5024196015      -32.8320957466       -1.4844646635  SOLV      4864            0.0000000000
     14705      4875  TIP3      H1             27.2034096015      -32.8094057466       -0.8330646635  SOLV      4864            0.0000000000
     14706      4875  TIP3      H2             26.8047096015      -33.4601257466       -2.1405346635  SOLV      4864            0.0000000000
     14707      4876  TIP3      OH2            21.4996396015      -30.4495757466        4.3111253365  SOLV      4865            0.0000000000
     14708      4876  TIP3      H1             21.1691596015      -30.8202357466        3.4928253365  SOLV      4865            0.0000000000
     14709      4876  TIP3      H2             22.0880496015      -31.1201757466        4.6579553365  SOLV      4865            0.0000000000
     14710      4877  TIP3      OH2            22.8663896015      -27.0215157466        6.9923453365  SOLV      4866            0.0000000000
     14711      4877  TIP3      H1             22.7715196015      -27.6002057466        6.2358053365  SOLV      4866            0.0000000000
     14712      4877  TIP3      H2             23.5957496015      -27.3929457466        7.4886253365  SOLV      4866            0.0000000000
     14713      4878  TIP3      OH2            21.8661896015      -31.6810157466        7.9446253365  SOLV      4867            0.0000000000
     14714      4878  TIP3      H1             22.4314396015      -31.5595957466        7.1817453365  SOLV      4867            0.0000000000
     14715      4878  TIP3      H2             22.1850796015      -31.0435157466        8.5834753365  SOLV      4867            0.0000000000
     14716      4879  TIP3      OH2            28.1754096015      -26.1778257466        8.6786753365  SOLV      4868            0.0000000000
     14717      4879  TIP3      H1             27.9350696015      -25.5155157466        9.3265953365  SOLV      4868            0.0000000000
     14718      4879  TIP3      H2             27.9772296015      -27.0123057466        9.1036353365  SOLV      4868            0.0000000000
     14719      4880  TIP3      OH2            22.7462596015      -27.2817457466       12.6618153365  SOLV      4869            0.0000000000
     14720      4880  TIP3      H1             22.4350096015      -26.4994257466       13.1171353365  SOLV      4869            0.0000000000
     14721      4880  TIP3      H2             22.0962796015      -27.4348357466       11.9760153365  SOLV      4869            0.0000000000
     14722      4881  TIP3      OH2            19.6662496015      -31.0836357466       11.8903853365  SOLV      4870            0.0000000000
     14723      4881  TIP3      H1             19.7365696015      -30.4329557466       12.5888853365  SOLV      4870            0.0000000000
     14724      4881  TIP3      H2             18.7754696015      -30.9808857466       11.5554753365  SOLV      4870            0.0000000000
     14725      4882  TIP3      OH2            26.4517096015      -25.1810557466        3.5490553365  SOLV      4871            0.0000000000
     14726      4882  TIP3      H1             26.9254696015      -24.8854257466        4.3264753365  SOLV      4871            0.0000000000
     14727      4882  TIP3      H2             25.8886396015      -24.4428957466        3.3160153365  SOLV      4871            0.0000000000
     14728      4883  TIP3      OH2            20.9858496015      -25.2102457466       13.4251953365  SOLV      4872            0.0000000000
     14729      4883  TIP3      H1             20.9933796015      -25.3462757466       12.4777453365  SOLV      4872            0.0000000000
     14730      4883  TIP3      H2             20.0698896015      -25.3274357466       13.6771953365  SOLV      4872            0.0000000000
     14731      4884  TIP3      OH2            20.4899096015      -31.3801457466        1.9004053365  SOLV      4873            0.0000000000
     14732      4884  TIP3      H1             20.1980396015      -30.6119757466        1.4095353365  SOLV      4873            0.0000000000
     14733      4884  TIP3      H2             19.8154296015      -32.0395257466        1.7375453365  SOLV      4873            0.0000000000
     14734      4885  TIP3      OH2            16.5829196015      -29.0172257466       10.7153853365  SOLV      4874            0.0000000000
     14735      4885  TIP3      H1             16.0817596015      -29.0452857466        9.9003553365  SOLV      4874            0.0000000000
     14736      4885  TIP3      H2             16.5882896015      -29.9229057466       11.0251153365  SOLV      4874            0.0000000000
     14737      4886  TIP3      OH2            16.3331896015      -26.2368457466        7.5994053365  SOLV      4875            0.0000000000
     14738      4886  TIP3      H1             17.2792496015      -26.3811457466        7.5803553365  SOLV      4875            0.0000000000
     14739      4886  TIP3      H2             16.2208196015      -25.4525657466        8.1365253365  SOLV      4875            0.0000000000
     14740      4887  TIP3      OH2            25.5094396015      -25.9969557466       12.1579153365  SOLV      4876            0.0000000000
     14741      4887  TIP3      H1             25.5968996015      -25.1704957466       12.6328253365  SOLV      4876            0.0000000000
     14742      4887  TIP3      H2             24.6459496015      -26.3265757466       12.4068453365  SOLV      4876            0.0000000000
     14743      4888  TIP3      OH2            25.9240196015      -22.2245857466        1.9639753365  SOLV      4877            0.0000000000
     14744      4888  TIP3      H1             25.8486196015      -22.3458657466        1.0174953365  SOLV      4877            0.0000000000
     14745      4888  TIP3      H2             25.9568896015      -21.2753157466        2.0824353365  SOLV      4877            0.0000000000
     14746      4889  TIP3      OH2            19.5773996015      -23.4358857466        3.7448753365  SOLV      4878            0.0000000000
     14747      4889  TIP3      H1             19.7294396015      -23.7838457466        4.6235253365  SOLV      4878            0.0000000000
     14748      4889  TIP3      H2             18.7264396015      -23.7921557466        3.4895953365  SOLV      4878            0.0000000000
     14749      4890  TIP3      OH2            29.0256196015      -23.0705657466       -1.0337846635  SOLV      4879            0.0000000000
     14750      4890  TIP3      H1             29.4004596015      -23.8149557466       -1.5045246635  SOLV      4879            0.0000000000
     14751      4890  TIP3      H2             29.0299896015      -23.3405057466       -0.1154546635  SOLV      4879            0.0000000000
     14752      4891  TIP3      OH2            28.6944296015      -23.1448557466        1.7154353365  SOLV      4880            0.0000000000
     14753      4891  TIP3      H1             27.7594096015      -23.0446657466        1.8941353365  SOLV      4880            0.0000000000
     14754      4891  TIP3      H2             28.9746196015      -23.8542557466        2.2937553365  SOLV      4880            0.0000000000
     14755      4892  TIP3      OH2            18.8319696015      -27.6936857466       11.7586653365  SOLV      4881            0.0000000000
     14756      4892  TIP3      H1             19.0480996015      -28.0551257466       12.6182453365  SOLV      4881            0.0000000000
     14757      4892  TIP3      H2             17.9764396015      -28.0683057466       11.5490153365  SOLV      4881            0.0000000000
     14758      4893  TIP3      OH2            21.5417796015      -34.2581857466        8.8491053365  SOLV      4882            0.0000000000
     14759      4893  TIP3      H1             20.8999896015      -34.2984557466        9.5581153365  SOLV      4882            0.0000000000
     14760      4893  TIP3      H2             21.5789796015      -33.3317157466        8.6114053365  SOLV      4882            0.0000000000
     14761      4894  TIP3      OH2            21.5386896015      -34.0371757466        3.7611053365  SOLV      4883            0.0000000000
     14762      4894  TIP3      H1             20.6459796015      -34.3775657466        3.7024853365  SOLV      4883            0.0000000000
     14763      4894  TIP3      H2             21.9893496015      -34.4140857466        3.0054253365  SOLV      4883            0.0000000000
     14764      4895  TIP3      OH2            27.0742396015      -33.6211457466        2.5781853365  SOLV      4884            0.0000000000
     14765      4895  TIP3      H1             26.6652696015      -32.8062857466        2.2866653365  SOLV      4884            0.0000000000
     14766      4895  TIP3      H2             27.7948596015      -33.7611357466        1.9638953365  SOLV      4884            0.0000000000
     14767      4896  TIP3      OH2            26.1763996015      -33.4455057466       14.0662553365  SOLV      4885            0.0000000000
     14768      4896  TIP3      H1             25.6137796015      -34.1503457466       14.3870353365  SOLV      4885            0.0000000000
     14769      4896  TIP3      H2             27.0027396015      -33.5663157466       14.5340153365  SOLV      4885            0.0000000000
     14770      4897  TIP3      OH2            19.2918296015      -33.9378357466       10.7163053365  SOLV      4886            0.0000000000
     14771      4897  TIP3      H1             19.2537696015      -33.5376757466       11.5850153365  SOLV      4886            0.0000000000
     14772      4897  TIP3      H2             18.8009396015      -34.7545957466       10.8065953365  SOLV      4886            0.0000000000
     14773      4898  TIP3      OH2            22.6575696015      -36.5636057466       -2.4850946635  SOLV      4887            0.0000000000
     14774      4898  TIP3      H1             22.2266396015      -37.0085957466       -1.7553546635  SOLV      4887            0.0000000000
     14775      4898  TIP3      H2             21.9394396015      -36.1919757466       -2.9973446635  SOLV      4887            0.0000000000
     14776      4899  TIP3      OH2            17.1741196015      -36.0754557466       -0.0091846635  SOLV      4888            0.0000000000
     14777      4899  TIP3      H1             17.6482896015      -35.4844657466       -0.5940946635  SOLV      4888            0.0000000000
     14778      4899  TIP3      H2             16.4567596015      -35.5451657466        0.3378253365  SOLV      4888            0.0000000000
     14779      4900  TIP3      OH2            27.3429296015      -32.5369757466       10.0633953365  SOLV      4889            0.0000000000
     14780      4900  TIP3      H1             27.6664096015      -33.1680057466        9.4204453365  SOLV      4889            0.0000000000
     14781      4900  TIP3      H2             26.9028596015      -33.0717557466       10.7241353365  SOLV      4889            0.0000000000
     14782      4901  TIP3      OH2            24.1202196015      -36.6094257466        4.8475153365  SOLV      4890            0.0000000000
     14783      4901  TIP3      H1             23.2093296015      -36.5527457466        5.1361153365  SOLV      4890            0.0000000000
     14784      4901  TIP3      H2             24.6255096015      -36.6698757466        5.6582353365  SOLV      4890            0.0000000000
     14785      4902  TIP3      OH2            18.9485596015      -34.9807957466        3.6742753365  SOLV      4891            0.0000000000
     14786      4902  TIP3      H1             18.0593596015      -34.8812457466        3.3342353365  SOLV      4891            0.0000000000
     14787      4902  TIP3      H2             19.2450496015      -35.8224957466        3.3280653365  SOLV      4891            0.0000000000
     14788      4903  TIP3      OH2            22.6017396015      -34.9805357466        1.3307353365  SOLV      4892            0.0000000000
     14789      4903  TIP3      H1             23.5332896015      -34.8515357466        1.5090453365  SOLV      4892            0.0000000000
     14790      4903  TIP3      H2             22.3867696015      -34.3111057466        0.6812053365  SOLV      4892            0.0000000000
     14791      4904  TIP3      OH2            21.2757596015      -33.7863157466       -1.1026546635  SOLV      4893            0.0000000000
     14792      4904  TIP3      H1             20.7332696015      -34.1659357466       -1.7938946635  SOLV      4893            0.0000000000
     14793      4904  TIP3      H2             22.1092496015      -33.5918457466       -1.5312446635  SOLV      4893            0.0000000000
     14794      4905  TIP3      OH2            19.4108996015      -29.2291257466       13.9965053365  SOLV      4894            0.0000000000
     14795      4905  TIP3      H1             20.1431396015      -28.9745357466       14.5579553365  SOLV      4894            0.0000000000
     14796      4905  TIP3      H2             18.6307696015      -29.0245857466       14.5120453365  SOLV      4894            0.0000000000
     14797      4906  TIP3      OH2            25.4401896015      -33.8221257466        6.7344753365  SOLV      4895            0.0000000000
     14798      4906  TIP3      H1             26.0045296015      -34.3684657466        6.1874353365  SOLV      4895            0.0000000000
     14799      4906  TIP3      H2             25.2925296015      -34.3439357466        7.5232353365  SOLV      4895            0.0000000000
     14800      4907  TIP3      OH2            24.0667796015      -35.4335157466        9.1485153365  SOLV      4896            0.0000000000
     14801      4907  TIP3      H1             23.2313096015      -34.9795657466        9.2587553365  SOLV      4896            0.0000000000
     14802      4907  TIP3      H2             24.5908396015      -35.1576657466        9.9005053365  SOLV      4896            0.0000000000
     14803      4908  TIP3      OH2            24.6110396015      -29.2207457466        0.8331553365  SOLV      4897            0.0000000000
     14804      4908  TIP3      H1             23.8661396015      -29.7282157466        0.5109453365  SOLV      4897            0.0000000000
     14805      4908  TIP3      H2             24.4767596015      -29.1719457466        1.7796353365  SOLV      4897            0.0000000000
     14806      4909  TIP3      OH2            26.1302496015      -29.0364157466       12.0700653365  SOLV      4898            0.0000000000
     14807      4909  TIP3      H1             25.7848596015      -29.4181757466       12.8770253365  SOLV      4898            0.0000000000
     14808      4909  TIP3      H2             25.9302596015      -28.1030557466       12.1413553365  SOLV      4898            0.0000000000
     14809      4910  TIP3      OH2            19.7358696015      -29.9257457466        6.6029453365  SOLV      4899            0.0000000000
     14810      4910  TIP3      H1             20.4805896015      -29.9281757466        6.0015953365  SOLV      4899            0.0000000000
     14811      4910  TIP3      H2             19.8135296015      -30.7493657466        7.0844553365  SOLV      4899            0.0000000000
     14812      4911  TIP3      OH2            26.7364496015      -27.7623157466       -0.1413846635  SOLV      4900            0.0000000000
     14813      4911  TIP3      H1             26.4412896015      -26.9355257466        0.2400953365  SOLV      4900            0.0000000000
     14814      4911  TIP3      H2             26.0334496015      -28.3816257466        0.0547553365  SOLV      4900            0.0000000000
     14815      4912  TIP3      OH2            16.7438396015      -31.4650557466       11.9177953365  SOLV      4901            0.0000000000
     14816      4912  TIP3      H1             16.9666996015      -31.8830957466       12.7495453365  SOLV      4901            0.0000000000
     14817      4912  TIP3      H2             16.1418496015      -32.0775557466       11.4950753365  SOLV      4901            0.0000000000
     14818      4913  TIP3      OH2            23.7603296015      -31.9480657466       14.1307653365  SOLV      4902            0.0000000000
     14819      4913  TIP3      H1             23.4644096015      -32.1137657466       13.2356753365  SOLV      4902            0.0000000000
     14820      4913  TIP3      H2             24.6918496015      -32.1680357466       14.1201553365  SOLV      4902            0.0000000000
     14821      4914  TIP3      OH2            28.3806096015      -26.5748657466       12.0205653365  SOLV      4903            0.0000000000
     14822      4914  TIP3      H1             27.4800396015      -26.3916057466       11.7529553365  SOLV      4903            0.0000000000
     14823      4914  TIP3      H2             28.4147196015      -26.3159357466       12.9414453365  SOLV      4903            0.0000000000
     14824      4915  TIP3      OH2            22.1108096015      -26.4079257466        4.0070953365  SOLV      4904            0.0000000000
     14825      4915  TIP3      H1             22.6380296015      -25.6344857466        3.8069753365  SOLV      4904            0.0000000000
     14826      4915  TIP3      H2             21.2306596015      -26.1830057466        3.7054953365  SOLV      4904            0.0000000000
     14827      4916  TIP3      OH2            17.8655796015      -31.5455157466       -1.4056646635  SOLV      4905            0.0000000000
     14828      4916  TIP3      H1             18.4815696015      -30.9187957466       -1.0261846635  SOLV      4905            0.0000000000
     14829      4916  TIP3      H2             17.0038396015      -31.2295357466       -1.1340146635  SOLV      4905            0.0000000000
     14830      4917  TIP3      OH2            23.5380396015      -28.7449357466        3.5835253365  SOLV      4906            0.0000000000
     14831      4917  TIP3      H1             23.2970396015      -27.8194957466        3.6250553365  SOLV      4906            0.0000000000
     14832      4917  TIP3      H2             22.7973996015      -29.2038057466        3.9799153365  SOLV      4906            0.0000000000
     14833      4918  TIP3      OH2            24.0526996015      -24.5955757466        9.8986353365  SOLV      4907            0.0000000000
     14834      4918  TIP3      H1             24.4151696015      -23.7410157466        9.6650753365  SOLV      4907            0.0000000000
     14835      4918  TIP3      H2             24.5842196015      -24.8874157466       10.6392653365  SOLV      4907            0.0000000000
     14836      4919  TIP3      OH2            22.2211196015      -23.7231757466        3.1287453365  SOLV      4908            0.0000000000
     14837      4919  TIP3      H1             21.2711696015      -23.6174357466        3.1800753365  SOLV      4908            0.0000000000
     14838      4919  TIP3      H2             22.5729296015      -22.9024357466        3.4734953365  SOLV      4908            0.0000000000
     14839      4920  TIP3      OH2            27.5967796015      -28.4965057466        9.5991953365  SOLV      4909            0.0000000000
     14840      4920  TIP3      H1             27.1709096015      -28.7243357466       10.4255953365  SOLV      4909            0.0000000000
     14841      4920  TIP3      H2             28.1773596015      -29.2353257466        9.4167253365  SOLV      4909            0.0000000000
     14842      4921  TIP3      OH2            30.2551996015      -23.9445557466       12.0686753365  SOLV      4910            0.0000000000
     14843      4921  TIP3      H1             29.6535196015      -24.5002657466       11.5733053365  SOLV      4910            0.0000000000
     14844      4921  TIP3      H2             30.5365696015      -23.2775757466       11.4424153365  SOLV      4910            0.0000000000
     14845      4922  TIP3      OH2            18.3777896015      -36.7117857466       11.4759353365  SOLV      4911            0.0000000000
     14846      4922  TIP3      H1             17.4850196015      -36.3732457466       11.4083353365  SOLV      4911            0.0000000000
     14847      4922  TIP3      H2             18.2790696015      -37.5671757466       11.8940153365  SOLV      4911            0.0000000000
     14848      4923  TIP3      OH2            18.0289896015      -24.9073457466        9.9108753365  SOLV      4912            0.0000000000
     14849      4923  TIP3      H1             18.2460196015      -25.8391057466        9.8798453365  SOLV      4912            0.0000000000
     14850      4923  TIP3      H2             18.2753396015      -24.6328457466       10.7941553365  SOLV      4912            0.0000000000
     14851      4924  TIP3      OH2            23.8904496015      -26.4558457466       -2.8799046635  SOLV      4913            0.0000000000
     14852      4924  TIP3      H1             24.1294296015      -27.2040357466       -3.4270146635  SOLV      4913            0.0000000000
     14853      4924  TIP3      H2             23.6215796015      -26.8436757466       -2.0471246635  SOLV      4913            0.0000000000
     14854      4925  TIP3      OH2            22.8275096015      -26.8854657466       -0.4236446635  SOLV      4914            0.0000000000
     14855      4925  TIP3      H1             22.9743096015      -27.4054857466        0.3664453365  SOLV      4914            0.0000000000
     14856      4925  TIP3      H2             22.8246796015      -25.9787057466       -0.1170546635  SOLV      4914            0.0000000000
     14857      4926  TIP3      OH2            19.2806196015      -29.6331357466        0.0868953365  SOLV      4915            0.0000000000
     14858      4926  TIP3      H1             18.5945496015      -29.2808857466        0.6538653365  SOLV      4915            0.0000000000
     14859      4926  TIP3      H2             19.8034096015      -28.8701757466       -0.1596746635  SOLV      4915            0.0000000000
     14860      4927  TIP3      OH2            25.5652296015      -25.1881057466        0.3257753365  SOLV      4916            0.0000000000
     14861      4927  TIP3      H1             24.7488396015      -24.6911357466        0.3782053365  SOLV      4916            0.0000000000
     14862      4927  TIP3      H2             26.0948596015      -24.7127557466       -0.3143446635  SOLV      4916            0.0000000000
     14863      4928  TIP3      OH2            25.0966096015      -35.5907057466        2.2978653365  SOLV      4917            0.0000000000
     14864      4928  TIP3      H1             25.9088696015      -35.0863857466        2.3440353365  SOLV      4917            0.0000000000
     14865      4928  TIP3      H2             24.8519096015      -35.7357357466        3.2118253365  SOLV      4917            0.0000000000
     14866      4929  TIP3      OH2            25.6322496015      -34.6044357466       11.4825253365  SOLV      4918            0.0000000000
     14867      4929  TIP3      H1             25.7512796015      -34.0308957466       12.2395653365  SOLV      4918            0.0000000000
     14868      4929  TIP3      H2             26.2877096015      -35.2924957466       11.5973053365  SOLV      4918            0.0000000000
     14869      4930  TIP3      OH2            22.9035396015      -24.1443857466        0.3074653365  SOLV      4919            0.0000000000
     14870      4930  TIP3      H1             23.0644096015      -23.3446357466       -0.1932746635  SOLV      4919            0.0000000000
     14871      4930  TIP3      H2             22.7063196015      -23.8377857466        1.1925253365  SOLV      4919            0.0000000000
     14872      4931  TIP3      OH2            19.8965096015      -27.0192457466       -1.0163246635  SOLV      4920            0.0000000000
     14873      4931  TIP3      H1             20.4886596015      -26.3197657466       -0.7400846635  SOLV      4920            0.0000000000
     14874      4931  TIP3      H2             20.3558096015      -27.4522957466       -1.7358646635  SOLV      4920            0.0000000000
     14875      4932  TIP3      OH2            18.2124296015      -34.3549457466       -1.9003846635  SOLV      4921            0.0000000000
     14876      4932  TIP3      H1             18.1676896015      -33.4156357466       -1.7216846635  SOLV      4921            0.0000000000
     14877      4932  TIP3      H2             17.3247496015      -34.5904557466       -2.1701746635  SOLV      4921            0.0000000000
     14878      4933  TIP3      OH2            17.9509596015      -25.6325757466        2.9332953365  SOLV      4922            0.0000000000
     14879      4933  TIP3      H1             17.1188196015      -25.1603057466        2.9604353365  SOLV      4922            0.0000000000
     14880      4933  TIP3      H2             18.4967896015      -25.1228157466        2.3346053365  SOLV      4922            0.0000000000
     14881      4934  TIP3      OH2            17.2393296015      -23.0202057466       14.2630953365  SOLV      4923            0.0000000000
     14882      4934  TIP3      H1             17.7795496015      -23.2368057466       15.0230153365  SOLV      4923            0.0000000000
     14883      4934  TIP3      H2             16.7581296015      -23.8256057466       14.0733453365  SOLV      4923            0.0000000000
     14884      4935  TIP3      OH2            21.8366696015      -24.1007657466       15.8835153365  SOLV      4924            0.0000000000
     14885      4935  TIP3      H1             22.6043896015      -24.5596857466       16.2244353365  SOLV      4924            0.0000000000
     14886      4935  TIP3      H2             21.8152896015      -24.3267857466       14.9536353365  SOLV      4924            0.0000000000
     14887      4936  TIP3      OH2            25.9286296015      -24.5927057466       -2.7413046635  SOLV      4925            0.0000000000
     14888      4936  TIP3      H1             25.2847296015      -25.2238457466       -2.4199346635  SOLV      4925            0.0000000000
     14889      4936  TIP3      H2             26.6904596015      -25.1239057466       -2.9729546635  SOLV      4925            0.0000000000
     14890      4937  TIP3      OH2            28.4135396015      -25.7206557466       14.6126653365  SOLV      4926            0.0000000000
     14891      4937  TIP3      H1             28.0624896015      -26.5773557466       14.8557053365  SOLV      4926            0.0000000000
     14892      4937  TIP3      H2             29.1398596015      -25.5779857466       15.2195653365  SOLV      4926            0.0000000000
     14893      4938  TIP3      OH2            17.1462796015      -29.2097957466       15.2175253365  SOLV      4927            0.0000000000
     14894      4938  TIP3      H1             17.2903296015      -30.1117257466       14.9311953365  SOLV      4927            0.0000000000
     14895      4938  TIP3      H2             16.3740196015      -28.9235857466       14.7297553365  SOLV      4927            0.0000000000
     14896      4939  TIP3      OH2            21.4876496015      -28.8662257466       -2.6500146635  SOLV      4928            0.0000000000
     14897      4939  TIP3      H1             21.5520596015      -29.6602657466       -2.1193746635  SOLV      4928            0.0000000000
     14898      4939  TIP3      H2             22.1405696015      -28.9849457466       -3.3398146635  SOLV      4928            0.0000000000
     14899      4940  TIP3      OH2            23.8018896015      -29.2399857466       14.6501653365  SOLV      4929            0.0000000000
     14900      4940  TIP3      H1             23.4732696015      -28.9691757466       13.7929053365  SOLV      4929            0.0000000000
     14901      4940  TIP3      H2             23.9537096015      -30.1810057466       14.5626653365  SOLV      4929            0.0000000000
     14902      4941  TIP3      OH2            26.8399896015      -27.8190557466       -2.9142146635  SOLV      4930            0.0000000000
     14903      4941  TIP3      H1             26.5713996015      -27.6388457466       -2.0133246635  SOLV      4930            0.0000000000
     14904      4941  TIP3      H2             26.6335496015      -28.7444357466       -3.0456346635  SOLV      4930            0.0000000000
     14905      4942  TIP3      OH2            17.9789296015      -32.0094657466       14.6374553365  SOLV      4931            0.0000000000
     14906      4942  TIP3      H1             18.3870496015      -32.8668057466       14.5165153365  SOLV      4931            0.0000000000
     14907      4942  TIP3      H2             17.7186896015      -31.9953357466       15.5584853365  SOLV      4931            0.0000000000
     14908      4943  TIP3      OH2            22.6370296015      -30.8936057466       -0.3442146635  SOLV      4932            0.0000000000
     14909      4943  TIP3      H1             22.1772296015      -31.3777757466        0.3416353365  SOLV      4932            0.0000000000
     14910      4943  TIP3      H2             22.8918996015      -31.5620657466       -0.9801646635  SOLV      4932            0.0000000000
     14911      4944  TIP3      OH2            21.9259596015      -33.0008957466       12.0117453365  SOLV      4933            0.0000000000
     14912      4944  TIP3      H1             21.3075696015      -32.3262357466       12.2922153365  SOLV      4933            0.0000000000
     14913      4944  TIP3      H2             22.2700796015      -32.6795057466       11.1783653365  SOLV      4933            0.0000000000
     14914      4945  TIP3      OH2            23.7080696015      -32.6504257466       -2.0818946635  SOLV      4934            0.0000000000
     14915      4945  TIP3      H1             23.5275696015      -32.8053057466       -3.0090646635  SOLV      4934            0.0000000000
     14916      4945  TIP3      H2             24.6581196015      -32.5425557466       -2.0371046635  SOLV      4934            0.0000000000
     14917      4946  TIP3      OH2            26.9457796015      -30.5293657466       15.2892253365  SOLV      4935            0.0000000000
     14918      4946  TIP3      H1             27.8988996015      -30.4454557466       15.2618253365  SOLV      4935            0.0000000000
     14919      4946  TIP3      H2             26.7852396015      -31.2411857466       15.9087153365  SOLV      4935            0.0000000000
     14920      4947  TIP3      OH2            22.2653296015      -35.6458157466       13.0940553365  SOLV      4936            0.0000000000
     14921      4947  TIP3      H1             22.4154196015      -36.3746857466       12.4920253365  SOLV      4936            0.0000000000
     14922      4947  TIP3      H2             22.2675696015      -34.8686457466       12.5352753365  SOLV      4936            0.0000000000
     14923      4948  TIP3      OH2            24.2597396015      -31.8366157466       10.8263153365  SOLV      4937            0.0000000000
     14924      4948  TIP3      H1             25.0102196015      -31.9928657466       10.2530953365  SOLV      4937            0.0000000000
     14925      4948  TIP3      H2             23.9205696015      -30.9849557466       10.5508653365  SOLV      4937            0.0000000000
     14926      4949  TIP3      OH2            20.7439596015      -34.4474657466       15.0056153365  SOLV      4938            0.0000000000
     14927      4949  TIP3      H1             19.9768596015      -34.9799857466       14.7953753365  SOLV      4938            0.0000000000
     14928      4949  TIP3      H2             21.4228596015      -34.7574257466       14.4062453365  SOLV      4938            0.0000000000
     14929      4950  TIP3      OH2            24.7474996015      -35.4981257466       14.5819953365  SOLV      4939            0.0000000000
     14930      4950  TIP3      H1             24.5120396015      -35.7174557466       15.4834853365  SOLV      4939            0.0000000000
     14931      4950  TIP3      H2             23.9641896015      -35.7050057466       14.0722453365  SOLV      4939            0.0000000000
     14932      4951  TIP3      OH2            18.9242396015      -36.5270857466       14.7100853365  SOLV      4940            0.0000000000
     14933      4951  TIP3      H1             19.1359796015      -37.2334757466       14.0998353365  SOLV      4940            0.0000000000
     14934      4951  TIP3      H2             18.8129896015      -36.9644857466       15.5542053365  SOLV      4940            0.0000000000
     14935      4952  TIP3      OH2            23.6052396015      -21.9600557466       -1.0805346635  SOLV      4941            0.0000000000
     14936      4952  TIP3      H1             24.5383096015      -21.8021857466       -0.9366946635  SOLV      4941            0.0000000000
     14937      4952  TIP3      H2             23.3411196015      -21.2847557466       -1.7053846635  SOLV      4941            0.0000000000
     14938      4953  TIP3      OH2            17.1737296015      -27.3236757466       -1.5977246635  SOLV      4942            0.0000000000
     14939      4953  TIP3      H1             18.0876496015      -27.2447857466       -1.3243346635  SOLV      4942            0.0000000000
     14940      4953  TIP3      H2             17.1810396015      -28.0107157466       -2.2641646635  SOLV      4942            0.0000000000
     14941      4954  TIP3      OH2            15.8227896015      -21.9308257466        3.4796653365  SOLV      4943            0.0000000000
     14942      4954  TIP3      H1             15.1754996015      -22.3926557466        2.9467853365  SOLV      4943            0.0000000000
     14943      4954  TIP3      H2             16.1772496015      -22.6024957466        4.0622853365  SOLV      4943            0.0000000000
     14944      4955  TIP3      OH2            16.6927096015      -23.8501257466        5.2842853365  SOLV      4944            0.0000000000
     14945      4955  TIP3      H1             16.3583896015      -24.7303957466        5.4563053365  SOLV      4944            0.0000000000
     14946      4955  TIP3      H2             16.9149496015      -23.5046257466        6.1488453365  SOLV      4944            0.0000000000
     14947      4956  TIP3      OH2            16.7726596015      -30.7745857466        7.7357753365  SOLV      4945            0.0000000000
     14948      4956  TIP3      H1             16.9569496015      -30.8564157466        6.8000653365  SOLV      4945            0.0000000000
     14949      4956  TIP3      H2             17.6219496015      -30.8988857466        8.1594153365  SOLV      4945            0.0000000000
     14950      4957  TIP3      OH2            16.3701396015      -35.5040857466       13.8766553365  SOLV      4946            0.0000000000
     14951      4957  TIP3      H1             17.2896296015      -35.6262557466       14.1129653365  SOLV      4946            0.0000000000
     14952      4957  TIP3      H2             15.9205896015      -36.2541157466       14.2660053365  SOLV      4946            0.0000000000
     14953      4958  TIP3      OH2            15.8954196015      -34.1926257466        7.8369653365  SOLV      4947            0.0000000000
     14954      4958  TIP3      H1             16.3873996015      -34.4135757466        7.0461653365  SOLV      4947            0.0000000000
     14955      4958  TIP3      H2             16.2575096015      -33.3522857466        8.1179153365  SOLV      4947            0.0000000000
     14956      4959  TIP3      OH2            18.3645396015      -26.0214057466       14.3800353365  SOLV      4948            0.0000000000
     14957      4959  TIP3      H1             17.5437896015      -25.8467557466       13.9195053365  SOLV      4948            0.0000000000
     14958      4959  TIP3      H2             18.1123196015      -26.0949357466       15.3004753365  SOLV      4948            0.0000000000
     14959      4960  TIP3      OH2            21.3188296015      -25.0472857466       10.6384353365  SOLV      4949            0.0000000000
     14960      4960  TIP3      H1             20.8939396015      -24.2374357466       10.3558953365  SOLV      4949            0.0000000000
     14961      4960  TIP3      H2             22.2231096015      -24.9618757466       10.3364153365  SOLV      4949            0.0000000000
     14962      4961  TIP3      OH2            25.6299696015      -23.6482857466       13.5978053365  SOLV      4950            0.0000000000
     14963      4961  TIP3      H1             25.8147196015      -23.9816757466       14.4758353365  SOLV      4950            0.0000000000
     14964      4961  TIP3      H2             26.4764196015      -23.3384257466       13.2757253365  SOLV      4950            0.0000000000
     14965      4962  TIP3      OH2            27.9750096015      -22.3623957466       12.8419453365  SOLV      4951            0.0000000000
     14966      4962  TIP3      H1             28.6518996015      -22.9951657466       12.6018653365  SOLV      4951            0.0000000000
     14967      4962  TIP3      H2             28.2968896015      -21.9613457466       13.6492753365  SOLV      4951            0.0000000000
     14968      4963  TIP3      OH2            18.7204996015      -21.7908957466       10.6859653365  SOLV      4952            0.0000000000
     14969      4963  TIP3      H1             18.0001396015      -21.3507957466       10.2347353365  SOLV      4952            0.0000000000
     14970      4963  TIP3      H2             18.3548996015      -22.0414257466       11.5343653365  SOLV      4952            0.0000000000
     14971      4964  TIP3      OH2            21.1877596015      -22.1905057466        9.7156853365  SOLV      4953            0.0000000000
     14972      4964  TIP3      H1             20.3229796015      -22.1186557466       10.1196953365  SOLV      4953            0.0000000000
     14973      4964  TIP3      H2             21.1326596015      -21.6437757466        8.9319353365  SOLV      4953            0.0000000000
     14974      4965  TIP3      OH2            25.8983196015      -22.3026157466        8.8912853365  SOLV      4954            0.0000000000
     14975      4965  TIP3      H1             25.4417196015      -21.7736457466        8.2371253365  SOLV      4954            0.0000000000
     14976      4965  TIP3      H2             26.0611196015      -21.6994757466        9.6165153365  SOLV      4954            0.0000000000
     14977      4966  TIP3      OH2            28.2259496015      -23.4246557466        9.8363153365  SOLV      4955            0.0000000000
     14978      4966  TIP3      H1             27.3213196015      -23.2596357466        9.5705253365  SOLV      4955            0.0000000000
     14979      4966  TIP3      H2             28.6548096015      -22.5714357466        9.7706553365  SOLV      4955            0.0000000000
     14980      4967  TIP3      OH2            30.8301396015      -21.8547457466       10.1310953365  SOLV      4956            0.0000000000
     14981      4967  TIP3      H1             30.6483396015      -20.9388557466        9.9205853365  SOLV      4956            0.0000000000
     14982      4967  TIP3      H2             31.0069196015      -22.2650357466        9.2845553365  SOLV      4956            0.0000000000
     14983      4968  TIP3      OH2            18.1353096015      -23.1676457466        7.5961453365  SOLV      4957            0.0000000000
     14984      4968  TIP3      H1             18.1169096015      -23.5931357466        8.4533753365  SOLV      4957            0.0000000000
     14985      4968  TIP3      H2             18.9400996015      -23.4861457466        7.1873653365  SOLV      4957            0.0000000000
     14986      4969  TIP3      OH2            20.2766196015      -24.4577757466        6.2511353365  SOLV      4958            0.0000000000
     14987      4969  TIP3      H1             20.0576896015      -25.3740357466        6.4207353365  SOLV      4958            0.0000000000
     14988      4969  TIP3      H2             21.1008396015      -24.3177357466        6.7172753365  SOLV      4958            0.0000000000
     14989      4970  TIP3      OH2            22.8138696015      -23.9878457466        7.0999353365  SOLV      4959            0.0000000000
     14990      4970  TIP3      H1             23.0264396015      -24.8759457466        6.8130253365  SOLV      4959            0.0000000000
     14991      4970  TIP3      H2             22.8783796015      -24.0220757466        8.0543353365  SOLV      4959            0.0000000000
     14992      4971  TIP3      OH2            17.3862796015      -23.9437257466        0.7673753365  SOLV      4960            0.0000000000
     14993      4971  TIP3      H1             16.7012696015      -23.9818357466        0.0998853365  SOLV      4960            0.0000000000
     14994      4971  TIP3      H2             17.3899996015      -23.0309657466        1.0555853365  SOLV      4960            0.0000000000
     14995      4972  TIP3      OH2            26.2506296015      -22.7342357466       -0.8350046635  SOLV      4961            0.0000000000
     14996      4972  TIP3      H1             27.1166496015      -22.3674957466       -1.0131846635  SOLV      4961            0.0000000000
     14997      4972  TIP3      H2             26.0039096015      -23.1734357466       -1.6489246635  SOLV      4961            0.0000000000
     14998      4973  TIP3      OH2            19.2043996015      -23.0236457466       -2.2074146635  SOLV      4962            0.0000000000
     14999      4973  TIP3      H1             18.9368596015      -22.7373557466       -1.3341046635  SOLV      4962            0.0000000000
     15000      4973  TIP3      H2             19.9756596015      -23.5697257466       -2.0551646635  SOLV      4962            0.0000000000
     15001      4974  TIP3      OH2           -28.8407503985      -11.6775257466        4.0250053365  SOLV      4963            0.0000000000
     15002      4974  TIP3      H1            -28.7516403985      -10.7337057466        3.8927153365  SOLV      4963            0.0000000000
     15003      4974  TIP3      H2            -29.4789903985      -11.9528857466        3.3669453365  SOLV      4963            0.0000000000
     15004      4975  TIP3      OH2           -29.9076203985      -12.4224557466        7.4438253365  SOLV      4964            0.0000000000
     15005      4975  TIP3      H1            -29.9458703985      -13.0688257466        8.1487853365  SOLV      4964            0.0000000000
     15006      4975  TIP3      H2            -30.2299703985      -12.8890157466        6.6726953365  SOLV      4964            0.0000000000
     15007      4976  TIP3      OH2           -37.5391203985      -12.8082457466        9.0368153365  SOLV      4965            0.0000000000
     15008      4976  TIP3      H1            -37.4979103985      -13.4339157466        9.7600553365  SOLV      4965            0.0000000000
     15009      4976  TIP3      H2            -36.8363503985      -12.1843857466        9.2188553365  SOLV      4965            0.0000000000
     15010      4977  TIP3      OH2           -26.2016003985       -9.4834157466        5.7453353365  SOLV      4966            0.0000000000
     15011      4977  TIP3      H1            -26.6423303985      -10.2038157466        6.1958953365  SOLV      4966            0.0000000000
     15012      4977  TIP3      H2            -26.2146303985       -8.7626957466        6.3751053365  SOLV      4966            0.0000000000
     15013      4978  TIP3      OH2           -36.6158103985       -8.3583557466        7.5717253365  SOLV      4967            0.0000000000
     15014      4978  TIP3      H1            -36.9852903985       -9.1603057466        7.2021553365  SOLV      4967            0.0000000000
     15015      4978  TIP3      H2            -35.6747003985       -8.5268657466        7.6180653365  SOLV      4967            0.0000000000
     15016      4979  TIP3      OH2           -40.0057603985      -14.6980957466        2.9646053365  SOLV      4968            0.0000000000
     15017      4979  TIP3      H1            -40.4534203985      -13.8522257466        2.9462553365  SOLV      4968            0.0000000000
     15018      4979  TIP3      H2            -40.5666403985      -15.2776757466        2.4491153365  SOLV      4968            0.0000000000
     15019      4980  TIP3      OH2           -39.2951503985      -12.5361357466        5.0904053365  SOLV      4969            0.0000000000
     15020      4980  TIP3      H1            -39.0818003985      -13.3059757466        5.6177053365  SOLV      4969            0.0000000000
     15021      4980  TIP3      H2            -38.5573903985      -12.4464657466        4.4871653365  SOLV      4969            0.0000000000
     15022      4981  TIP3      OH2           -29.0900503985       -4.3792457466        5.9573753365  SOLV      4970            0.0000000000
     15023      4981  TIP3      H1            -28.4704103985       -5.0557757466        5.6842953365  SOLV      4970            0.0000000000
     15024      4981  TIP3      H2            -29.2983103985       -4.5971657466        6.8658653365  SOLV      4970            0.0000000000
     15025      4982  TIP3      OH2           -31.5181803985       -9.9903157466        7.8499253365  SOLV      4971            0.0000000000
     15026      4982  TIP3      H1            -31.2143903985      -10.6761757466        7.2553353365  SOLV      4971            0.0000000000
     15027      4982  TIP3      H2            -30.7967803985       -9.8714457466        8.4677253365  SOLV      4971            0.0000000000
     15028      4983  TIP3      OH2           -22.8552003985      -18.3887857466        8.7105453365  SOLV      4972            0.0000000000
     15029      4983  TIP3      H1            -22.8059803985      -17.7786657466        9.4464553365  SOLV      4972            0.0000000000
     15030      4983  TIP3      H2            -22.4296903985      -17.9276957466        7.9876553365  SOLV      4972            0.0000000000
     15031      4984  TIP3      OH2           -28.3774803985      -15.5960757466        8.1774053365  SOLV      4973            0.0000000000
     15032      4984  TIP3      H1            -28.2348903985      -16.5423757466        8.1975653365  SOLV      4973            0.0000000000
     15033      4984  TIP3      H2            -28.4835803985      -15.3890957466        7.2488953365  SOLV      4973            0.0000000000
     15034      4985  TIP3      OH2           -35.2226503985      -17.4944357466        5.4498853365  SOLV      4974            0.0000000000
     15035      4985  TIP3      H1            -35.1795403985      -16.6345857466        5.0315153365  SOLV      4974            0.0000000000
     15036      4985  TIP3      H2            -35.6802403985      -18.0469657466        4.8162053365  SOLV      4974            0.0000000000
     15037      4986  TIP3      OH2           -27.5003803985      -17.3638757466        3.8507153365  SOLV      4975            0.0000000000
     15038      4986  TIP3      H1            -26.8539503985      -17.6925557466        4.4754753365  SOLV      4975            0.0000000000
     15039      4986  TIP3      H2            -26.9904403985      -16.8459757466        3.2278553365  SOLV      4975            0.0000000000
     15040      4987  TIP3      OH2           -38.6025003985      -15.0978557466        6.2120253365  SOLV      4976            0.0000000000
     15041      4987  TIP3      H1            -37.9488403985      -15.6476857466        6.6440353365  SOLV      4976            0.0000000000
     15042      4987  TIP3      H2            -38.5785703985      -15.3719557466        5.2952253365  SOLV      4976            0.0000000000
     15043      4988  TIP3      OH2           -33.4460503985      -13.5477257466        5.4271753365  SOLV      4977            0.0000000000
     15044      4988  TIP3      H1            -32.8299503985      -14.0741857466        5.9365753365  SOLV      4977            0.0000000000
     15045      4988  TIP3      H2            -34.0321703985      -14.1878557466        5.0235353365  SOLV      4977            0.0000000000
     15046      4989  TIP3      OH2           -22.4637403985      -16.9108657466       10.9465253365  SOLV      4978            0.0000000000
     15047      4989  TIP3      H1            -23.1522803985      -16.2527957466       10.8511853365  SOLV      4978            0.0000000000
     15048      4989  TIP3      H2            -22.4482803985      -17.1080757466       11.8830653365  SOLV      4978            0.0000000000
     15049      4990  TIP3      OH2           -36.4124603985      -18.5765957466        9.5239653365  SOLV      4979            0.0000000000
     15050      4990  TIP3      H1            -36.6312903985      -18.0465357466        8.7575653365  SOLV      4979            0.0000000000
     15051      4990  TIP3      H2            -37.0803703985      -18.3500457466       10.1711053365  SOLV      4979            0.0000000000
     15052      4991  TIP3      OH2           -29.0434803985       -9.0764857466        3.0678753365  SOLV      4980            0.0000000000
     15053      4991  TIP3      H1            -29.3389703985       -9.3992557466        2.2165653365  SOLV      4980            0.0000000000
     15054      4991  TIP3      H2            -29.3677003985       -8.1768157466        3.1091353365  SOLV      4980            0.0000000000
     15055      4992  TIP3      OH2           -33.8433203985      -10.9010257466        9.8113353365  SOLV      4981            0.0000000000
     15056      4992  TIP3      H1            -34.5834103985      -10.3028757466        9.9148553365  SOLV      4981            0.0000000000
     15057      4992  TIP3      H2            -33.1293703985      -10.3470657466        9.4956953365  SOLV      4981            0.0000000000
     15058      4993  TIP3      OH2           -25.7365403985      -18.0729457466        5.8313053365  SOLV      4982            0.0000000000
     15059      4993  TIP3      H1            -25.9517403985      -18.8386057466        6.3639053365  SOLV      4982            0.0000000000
     15060      4993  TIP3      H2            -25.0808003985      -17.6004857466        6.3441553365  SOLV      4982            0.0000000000
     15061      4994  TIP3      OH2           -36.8187303985      -16.6844157466        7.4761853365  SOLV      4983            0.0000000000
     15062      4994  TIP3      H1            -36.2051003985      -16.0516557466        7.8494253365  SOLV      4983            0.0000000000
     15063      4994  TIP3      H2            -36.3066603985      -17.1569157466        6.8198753365  SOLV      4983            0.0000000000
     15064      4995  TIP3      OH2           -35.4358903985       -8.9367257466       10.5984853365  SOLV      4984            0.0000000000
     15065      4995  TIP3      H1            -35.4411303985       -8.0573757466       10.2204153365  SOLV      4984            0.0000000000
     15066      4995  TIP3      H2            -36.2894803985       -9.0203157466       11.0234753365  SOLV      4984            0.0000000000
     15067      4996  TIP3      OH2           -39.3148003985       -9.2659357466        1.3804153365  SOLV      4985            0.0000000000
     15068      4996  TIP3      H1            -39.5867103985       -9.0368357466        0.4917053365  SOLV      4985            0.0000000000
     15069      4996  TIP3      H2            -39.2692303985       -8.4280557466        1.8409453365  SOLV      4985            0.0000000000
     15070      4997  TIP3      OH2           -25.6898303985       -7.6443457466        8.0932653365  SOLV      4986            0.0000000000
     15071      4997  TIP3      H1            -26.6314603985       -7.5859557466        8.2549553365  SOLV      4986            0.0000000000
     15072      4997  TIP3      H2            -25.4132203985       -6.7382957466        7.9562353365  SOLV      4986            0.0000000000
     15073      4998  TIP3      OH2           -25.3891303985      -19.3578157466        9.5106553365  SOLV      4987            0.0000000000
     15074      4998  TIP3      H1            -26.1252103985      -18.7471057466        9.4727853365  SOLV      4987            0.0000000000
     15075      4998  TIP3      H2            -24.7057303985      -18.9429157466        8.9842953365  SOLV      4987            0.0000000000
     15076      4999  TIP3      OH2           -32.3859903985      -21.2710857466        6.9764553365  SOLV      4988            0.0000000000
     15077      4999  TIP3      H1            -32.5035703985      -22.2194857466        6.9222853365  SOLV      4988            0.0000000000
     15078      4999  TIP3      H2            -33.2409803985      -20.9384757466        7.2495653365  SOLV      4988            0.0000000000
     15079      5000  TIP3      OH2           -24.5920403985       -9.3954757466       11.7044353365  SOLV      4989            0.0000000000
     15080      5000  TIP3      H1            -24.4524103985       -9.9872257466       10.9651353365  SOLV      4989            0.0000000000
     15081      5000  TIP3      H2            -24.4247603985       -8.5228857466       11.3483153365  SOLV      4989            0.0000000000
     15082      5001  TIP3      OH2           -30.1195003985      -12.4335257466        1.4770353365  SOLV      4990            0.0000000000
     15083      5001  TIP3      H1            -30.8309503985      -11.8985557466        1.1250853365  SOLV      4990            0.0000000000
     15084      5001  TIP3      H2            -29.4285403985      -12.3783157466        0.8169253365  SOLV      4990            0.0000000000
     15085      5002  TIP3      OH2           -30.0655803985      -13.9760957466       -1.4844646635  SOLV      4991            0.0000000000
     15086      5002  TIP3      H1            -29.3645903985      -13.9534057466       -0.8330646635  SOLV      4991            0.0000000000
     15087      5002  TIP3      H2            -29.7632903985      -14.6041257466       -2.1405346635  SOLV      4991            0.0000000000
     15088      5003  TIP3      OH2           -22.7501103985      -13.0556757466        9.7704753365  SOLV      4992            0.0000000000
     15089      5003  TIP3      H1            -23.4027003985      -12.3611157466        9.8595653365  SOLV      4992            0.0000000000
     15090      5003  TIP3      H2            -22.2850803985      -12.8455857466        8.9606353365  SOLV      4992            0.0000000000
     15091      5004  TIP3      OH2           -26.7137303985      -12.2241957466        2.4286253365  SOLV      4993            0.0000000000
     15092      5004  TIP3      H1            -27.4456303985      -11.9958257466        3.0016853365  SOLV      4993            0.0000000000
     15093      5004  TIP3      H2            -26.2665103985      -12.9379257466        2.8833753365  SOLV      4993            0.0000000000
     15094      5005  TIP3      OH2           -26.8163803985      -14.0499357466       11.4963253365  SOLV      4994            0.0000000000
     15095      5005  TIP3      H1            -26.7364703985      -13.2864957466       12.0681753365  SOLV      4994            0.0000000000
     15096      5005  TIP3      H2            -27.4176103985      -13.7706957466       10.8058353365  SOLV      4994            0.0000000000
     15097      5006  TIP3      OH2           -35.0683603985      -11.5935757466        4.3111253365  SOLV      4995            0.0000000000
     15098      5006  TIP3      H1            -35.3988403985      -11.9642357466        3.4928253365  SOLV      4995            0.0000000000
     15099      5006  TIP3      H2            -34.4799503985      -12.2641757466        4.6579553365  SOLV      4995            0.0000000000
     15100      5007  TIP3      OH2           -33.7016103985       -8.1655157466        6.9923453365  SOLV      4996            0.0000000000
     15101      5007  TIP3      H1            -33.7964803985       -8.7442057466        6.2358053365  SOLV      4996            0.0000000000
     15102      5007  TIP3      H2            -32.9722503985       -8.5369457466        7.4886253365  SOLV      4996            0.0000000000
     15103      5008  TIP3      OH2           -34.7018103985      -12.8250157466        7.9446253365  SOLV      4997            0.0000000000
     15104      5008  TIP3      H1            -34.1365603985      -12.7035957466        7.1817453365  SOLV      4997            0.0000000000
     15105      5008  TIP3      H2            -34.3829203985      -12.1875157466        8.5834753365  SOLV      4997            0.0000000000
     15106      5009  TIP3      OH2           -28.3925903985       -7.3218257466        8.6786753365  SOLV      4998            0.0000000000
     15107      5009  TIP3      H1            -28.6329303985       -6.6595157466        9.3265953365  SOLV      4998            0.0000000000
     15108      5009  TIP3      H2            -28.5907703985       -8.1563057466        9.1036353365  SOLV      4998            0.0000000000
     15109      5010  TIP3      OH2           -33.8217403985       -8.4257457466       12.6618153365  SOLV      4999            0.0000000000
     15110      5010  TIP3      H1            -34.1329903985       -7.6434257466       13.1171353365  SOLV      4999            0.0000000000
     15111      5010  TIP3      H2            -34.4717203985       -8.5788357466       11.9760153365  SOLV      4999            0.0000000000
     15112      5011  TIP3      OH2           -27.8427803985      -13.0619057466        0.1137453365  SOLV      5000            0.0000000000
     15113      5011  TIP3      H1            -27.2632303985      -12.9118757466        0.8606353365  SOLV      5000            0.0000000000
     15114      5011  TIP3      H2            -27.4287803985      -12.5911657466       -0.6096146635  SOLV      5000            0.0000000000
     15115      5012  TIP3      OH2           -36.9017503985      -12.2276357466       11.8903853365  SOLV      5001            0.0000000000
     15116      5012  TIP3      H1            -36.8314303985      -11.5769557466       12.5888853365  SOLV      5001            0.0000000000
     15117      5012  TIP3      H2            -37.7925303985      -12.1248857466       11.5554753365  SOLV      5001            0.0000000000
     15118      5013  TIP3      OH2           -35.5821503985       -6.3542457466       13.4251953365  SOLV      5002            0.0000000000
     15119      5013  TIP3      H1            -35.5746203985       -6.4902757466       12.4777453365  SOLV      5002            0.0000000000
     15120      5013  TIP3      H2            -36.4981103985       -6.4714357466       13.6771953365  SOLV      5002            0.0000000000
     15121      5014  TIP3      OH2           -24.1439403985      -21.3118657466       -0.0732846635  SOLV      5003            0.0000000000
     15122      5014  TIP3      H1            -25.0438703985      -21.1729657466        0.2217753365  SOLV      5003            0.0000000000
     15123      5014  TIP3      H2            -23.8921003985      -20.4804057466       -0.4751146635  SOLV      5003            0.0000000000
     15124      5015  TIP3      OH2           -36.0780903985      -12.5241457466        1.9004053365  SOLV      5004            0.0000000000
     15125      5015  TIP3      H1            -36.3699603985      -11.7559757466        1.4095353365  SOLV      5004            0.0000000000
     15126      5015  TIP3      H2            -36.7525703985      -13.1835257466        1.7375453365  SOLV      5004            0.0000000000
     15127      5016  TIP3      OH2           -22.9548003985       -6.9456257466       -1.6968946635  SOLV      5005            0.0000000000
     15128      5016  TIP3      H1            -22.8814503985       -6.0066057466       -1.5263646635  SOLV      5005            0.0000000000
     15129      5016  TIP3      H2            -22.0492903985       -7.2507657466       -1.7531646635  SOLV      5005            0.0000000000
     15130      5017  TIP3      OH2           -39.9850803985      -10.1612257466       10.7153853365  SOLV      5006            0.0000000000
     15131      5017  TIP3      H1            -40.4862403985      -10.1892857466        9.9003553365  SOLV      5006            0.0000000000
     15132      5017  TIP3      H2            -39.9797103985      -11.0669057466       11.0251153365  SOLV      5006            0.0000000000
     15133      5018  TIP3      OH2           -40.2348103985       -7.3808457466        7.5994053365  SOLV      5007            0.0000000000
     15134      5018  TIP3      H1            -39.2887503985       -7.5251457466        7.5803553365  SOLV      5007            0.0000000000
     15135      5018  TIP3      H2            -40.3471803985       -6.5965657466        8.1365253365  SOLV      5007            0.0000000000
     15136      5019  TIP3      OH2           -22.0369603985       -6.7148757466       13.2817753365  SOLV      5008            0.0000000000
     15137      5019  TIP3      H1            -22.0862803985       -7.6700657466       13.2445353365  SOLV      5008            0.0000000000
     15138      5019  TIP3      H2            -22.8637303985       -6.4473457466       13.6831553365  SOLV      5008            0.0000000000
     15139      5020  TIP3      OH2           -31.0585603985       -7.1409557466       12.1579153365  SOLV      5009            0.0000000000
     15140      5020  TIP3      H1            -30.9711003985       -6.3144957466       12.6328253365  SOLV      5009            0.0000000000
     15141      5020  TIP3      H2            -31.9220503985       -7.4705757466       12.4068453365  SOLV      5009            0.0000000000
     15142      5021  TIP3      OH2           -30.6439803985       -3.3685857466        1.9639753365  SOLV      5010            0.0000000000
     15143      5021  TIP3      H1            -30.7193803985       -3.4898657466        1.0174953365  SOLV      5010            0.0000000000
     15144      5021  TIP3      H2            -30.6111103985       -2.4193157466        2.0824353365  SOLV      5010            0.0000000000
     15145      5022  TIP3      OH2           -36.9906003985       -4.5798857466        3.7448753365  SOLV      5011            0.0000000000
     15146      5022  TIP3      H1            -36.8385603985       -4.9278457466        4.6235253365  SOLV      5011            0.0000000000
     15147      5022  TIP3      H2            -37.8415603985       -4.9361557466        3.4895953365  SOLV      5011            0.0000000000
     15148      5023  TIP3      OH2           -27.5423803985       -4.2145657466       -1.0337846635  SOLV      5012            0.0000000000
     15149      5023  TIP3      H1            -27.1675403985       -4.9589557466       -1.5045246635  SOLV      5012            0.0000000000
     15150      5023  TIP3      H2            -27.5380103985       -4.4845057466       -0.1154546635  SOLV      5012            0.0000000000
     15151      5024  TIP3      OH2           -27.8735703985       -4.2888557466        1.7154353365  SOLV      5013            0.0000000000
     15152      5024  TIP3      H1            -28.8085903985       -4.1886657466        1.8941353365  SOLV      5013            0.0000000000
     15153      5024  TIP3      H2            -27.5933803985       -4.9982557466        2.2937553365  SOLV      5013            0.0000000000
     15154      5025  TIP3      OH2           -24.8849803985      -15.2216257466       13.7619953365  SOLV      5014            0.0000000000
     15155      5025  TIP3      H1            -25.2923003985      -14.7410657466       13.0413253365  SOLV      5014            0.0000000000
     15156      5025  TIP3      H2            -24.8444103985      -16.1270257466       13.4540753365  SOLV      5014            0.0000000000
     15157      5026  TIP3      OH2           -37.7360303985       -8.8376857466       11.7586653365  SOLV      5015            0.0000000000
     15158      5026  TIP3      H1            -37.5199003985       -9.1991257466       12.6182453365  SOLV      5015            0.0000000000
     15159      5026  TIP3      H2            -38.5915603985       -9.2123057466       11.5490153365  SOLV      5015            0.0000000000
     15160      5027  TIP3      OH2           -35.1172303985      -20.3676357466        7.7540853365  SOLV      5016            0.0000000000
     15161      5027  TIP3      H1            -35.9788603985      -20.4548157466        7.3463753365  SOLV      5016            0.0000000000
     15162      5027  TIP3      H2            -35.1396603985      -19.5116257466        8.1818453365  SOLV      5016            0.0000000000
     15163      5028  TIP3      OH2           -30.4544503985      -20.6455957466       11.1287853365  SOLV      5017            0.0000000000
     15164      5028  TIP3      H1            -30.0341403985      -21.0608857466       11.8818453365  SOLV      5017            0.0000000000
     15165      5028  TIP3      H2            -31.3874903985      -20.8242657466       11.2459853365  SOLV      5017            0.0000000000
     15166      5029  TIP3      OH2           -27.1279603985      -16.8900757466       11.9822353365  SOLV      5018            0.0000000000
     15167      5029  TIP3      H1            -27.6420103985      -17.0158557466       12.7798353365  SOLV      5018            0.0000000000
     15168      5029  TIP3      H2            -27.2834903985      -15.9777657466       11.7378553365  SOLV      5018            0.0000000000
     15169      5030  TIP3      OH2           -26.3654703985      -12.0290757466       -2.2564646635  SOLV      5019            0.0000000000
     15170      5030  TIP3      H1            -26.3233903985      -12.2516857466       -3.1864646635  SOLV      5019            0.0000000000
     15171      5030  TIP3      H2            -25.5162603985      -11.6303657466       -2.0664746635  SOLV      5019            0.0000000000
     15172      5031  TIP3      OH2           -30.7927203985      -18.1532557466       -1.5861346635  SOLV      5020            0.0000000000
     15173      5031  TIP3      H1            -31.0462403985      -18.1340957466       -0.6633246635  SOLV      5020            0.0000000000
     15174      5031  TIP3      H2            -31.0495103985      -19.0247157466       -1.8875146635  SOLV      5020            0.0000000000
     15175      5032  TIP3      OH2           -35.0262203985      -15.4021857466        8.8491053365  SOLV      5021            0.0000000000
     15176      5032  TIP3      H1            -35.6680103985      -15.4424557466        9.5581153365  SOLV      5021            0.0000000000
     15177      5032  TIP3      H2            -34.9890203985      -14.4757157466        8.6114053365  SOLV      5021            0.0000000000
     15178      5033  TIP3      OH2           -35.0293103985      -15.1811757466        3.7611053365  SOLV      5022            0.0000000000
     15179      5033  TIP3      H1            -35.9220203985      -15.5215657466        3.7024853365  SOLV      5022            0.0000000000
     15180      5033  TIP3      H2            -34.5786503985      -15.5580857466        3.0054253365  SOLV      5022            0.0000000000
     15181      5034  TIP3      OH2           -29.4937603985      -14.7651457466        2.5781853365  SOLV      5023            0.0000000000
     15182      5034  TIP3      H1            -29.9027303985      -13.9502857466        2.2866653365  SOLV      5023            0.0000000000
     15183      5034  TIP3      H2            -28.7731403985      -14.9051357466        1.9638953365  SOLV      5023            0.0000000000
     15184      5035  TIP3      OH2           -30.3916003985      -14.5895057466       14.0662553365  SOLV      5024            0.0000000000
     15185      5035  TIP3      H1            -30.9542203985      -15.2943457466       14.3870353365  SOLV      5024            0.0000000000
     15186      5035  TIP3      H2            -29.5652603985      -14.7103157466       14.5340153365  SOLV      5024            0.0000000000
     15187      5036  TIP3      OH2           -28.4889903985      -15.3191057466        5.3921553365  SOLV      5025            0.0000000000
     15188      5036  TIP3      H1            -28.6845403985      -14.7134257466        4.6772153365  SOLV      5025            0.0000000000
     15189      5036  TIP3      H2            -28.3077303985      -16.1525857466        4.9577853365  SOLV      5025            0.0000000000
     15190      5037  TIP3      OH2           -37.2761703985      -15.0818357466       10.7163053365  SOLV      5026            0.0000000000
     15191      5037  TIP3      H1            -37.3142303985      -14.6816757466       11.5850153365  SOLV      5026            0.0000000000
     15192      5037  TIP3      H2            -37.7670603985      -15.8985957466       10.8065953365  SOLV      5026            0.0000000000
     15193      5038  TIP3      OH2           -33.9104303985      -17.7076057466       -2.4850946635  SOLV      5027            0.0000000000
     15194      5038  TIP3      H1            -34.3413603985      -18.1525957466       -1.7553546635  SOLV      5027            0.0000000000
     15195      5038  TIP3      H2            -34.6285603985      -17.3359757466       -2.9973446635  SOLV      5027            0.0000000000
     15196      5039  TIP3      OH2           -39.3938803985      -17.2194557466       -0.0091846635  SOLV      5028            0.0000000000
     15197      5039  TIP3      H1            -38.9197103985      -16.6284657466       -0.5940946635  SOLV      5028            0.0000000000
     15198      5039  TIP3      H2            -40.1112403985      -16.6891657466        0.3378253365  SOLV      5028            0.0000000000
     15199      5040  TIP3      OH2           -29.2250703985      -13.6809757466       10.0633953365  SOLV      5029            0.0000000000
     15200      5040  TIP3      H1            -28.9015903985      -14.3120057466        9.4204453365  SOLV      5029            0.0000000000
     15201      5040  TIP3      H2            -29.6651403985      -14.2157557466       10.7241353365  SOLV      5029            0.0000000000
     15202      5041  TIP3      OH2           -32.4477803985      -17.7534257466        4.8475153365  SOLV      5030            0.0000000000
     15203      5041  TIP3      H1            -33.3586703985      -17.6967457466        5.1361153365  SOLV      5030            0.0000000000
     15204      5041  TIP3      H2            -31.9424903985      -17.8138757466        5.6582353365  SOLV      5030            0.0000000000
     15205      5042  TIP3      OH2           -37.6194403985      -16.1247957466        3.6742753365  SOLV      5031            0.0000000000
     15206      5042  TIP3      H1            -38.5086403985      -16.0252457466        3.3342353365  SOLV      5031            0.0000000000
     15207      5042  TIP3      H2            -37.3229503985      -16.9664957466        3.3280653365  SOLV      5031            0.0000000000
     15208      5043  TIP3      OH2           -33.9662603985      -16.1245357466        1.3307353365  SOLV      5032            0.0000000000
     15209      5043  TIP3      H1            -33.0347103985      -15.9955357466        1.5090453365  SOLV      5032            0.0000000000
     15210      5043  TIP3      H2            -34.1812303985      -15.4551057466        0.6812053365  SOLV      5032            0.0000000000
     15211      5044  TIP3      OH2           -28.0425903985      -18.5187957466        8.1116953365  SOLV      5033            0.0000000000
     15212      5044  TIP3      H1            -28.7194303985      -18.3874857466        8.7756653365  SOLV      5033            0.0000000000
     15213      5044  TIP3      H2            -28.5281003985      -18.6738457466        7.3014653365  SOLV      5033            0.0000000000
     15214      5045  TIP3      OH2           -35.2922403985      -14.9303157466       -1.1026546635  SOLV      5034            0.0000000000
     15215      5045  TIP3      H1            -35.8347303985      -15.3099357466       -1.7938946635  SOLV      5034            0.0000000000
     15216      5045  TIP3      H2            -34.4587503985      -14.7358457466       -1.5312446635  SOLV      5034            0.0000000000
     15217      5046  TIP3      OH2           -24.7550803985       -2.8472557466       14.3884553365  SOLV      5035            0.0000000000
     15218      5046  TIP3      H1            -24.5552103985       -2.4230657466       13.5539853365  SOLV      5035            0.0000000000
     15219      5046  TIP3      H2            -24.0997103985       -2.5034357466       14.9954953365  SOLV      5035            0.0000000000
     15220      5047  TIP3      OH2           -37.1571003985      -10.3731257466       13.9965053365  SOLV      5036            0.0000000000
     15221      5047  TIP3      H1            -36.4248603985      -10.1185357466       14.5579553365  SOLV      5036            0.0000000000
     15222      5047  TIP3      H2            -37.9372303985      -10.1685857466       14.5120453365  SOLV      5036            0.0000000000
     15223      5048  TIP3      OH2           -31.1278103985      -14.9661257466        6.7344753365  SOLV      5037            0.0000000000
     15224      5048  TIP3      H1            -30.5634703985      -15.5124657466        6.1874353365  SOLV      5037            0.0000000000
     15225      5048  TIP3      H2            -31.2754703985      -15.4879357466        7.5232353365  SOLV      5037            0.0000000000
     15226      5049  TIP3      OH2           -36.1258403985      -18.8295157466        3.1529553365  SOLV      5038            0.0000000000
     15227      5049  TIP3      H1            -36.4428903985      -19.7319857466        3.1174953365  SOLV      5038            0.0000000000
     15228      5049  TIP3      H2            -35.3444303985      -18.8277757466        2.6001153365  SOLV      5038            0.0000000000
     15229      5050  TIP3      OH2           -32.5012203985      -16.5775157466        9.1485153365  SOLV      5039            0.0000000000
     15230      5050  TIP3      H1            -33.3366903985      -16.1235657466        9.2587553365  SOLV      5039            0.0000000000
     15231      5050  TIP3      H2            -31.9771603985      -16.3016657466        9.9005053365  SOLV      5039            0.0000000000
     15232      5051  TIP3      OH2           -31.9569603985      -10.3647457466        0.8331553365  SOLV      5040            0.0000000000
     15233      5051  TIP3      H1            -32.7018603985      -10.8722157466        0.5109453365  SOLV      5040            0.0000000000
     15234      5051  TIP3      H2            -32.0912403985      -10.3159457466        1.7796353365  SOLV      5040            0.0000000000
     15235      5052  TIP3      OH2           -24.8070703985      -11.2319257466        9.6199153365  SOLV      5041            0.0000000000
     15236      5052  TIP3      H1            -24.1651903985      -10.7752957466        9.0761353365  SOLV      5041            0.0000000000
     15237      5052  TIP3      H2            -25.6373803985      -11.1186857466        9.1573253365  SOLV      5041            0.0000000000
     15238      5053  TIP3      OH2           -28.0592803985      -17.5507557466       -0.9675846635  SOLV      5042            0.0000000000
     15239      5053  TIP3      H1            -28.9978603985      -17.4391957466       -1.1187046635  SOLV      5042            0.0000000000
     15240      5053  TIP3      H2            -27.7620703985      -16.6940657466       -0.6610146635  SOLV      5042            0.0000000000
     15241      5054  TIP3      OH2           -30.4377503985      -10.1804157466       12.0700653365  SOLV      5043            0.0000000000
     15242      5054  TIP3      H1            -30.7831403985      -10.5621757466       12.8770253365  SOLV      5043            0.0000000000
     15243      5054  TIP3      H2            -30.6377403985       -9.2470557466       12.1413553365  SOLV      5043            0.0000000000
     15244      5055  TIP3      OH2           -27.3409303985      -15.6834857466        0.6931553365  SOLV      5044            0.0000000000
     15245      5055  TIP3      H1            -26.4490303985      -15.8209857466        1.0122753365  SOLV      5044            0.0000000000
     15246      5055  TIP3      H2            -27.2845703985      -14.8928757466        0.1565053365  SOLV      5044            0.0000000000
     15247      5056  TIP3      OH2           -36.8321303985      -11.0697457466        6.6029453365  SOLV      5045            0.0000000000
     15248      5056  TIP3      H1            -36.0874103985      -11.0721757466        6.0015953365  SOLV      5045            0.0000000000
     15249      5056  TIP3      H2            -36.7544703985      -11.8933657466        7.0844553365  SOLV      5045            0.0000000000
     15250      5057  TIP3      OH2           -29.8315503985       -8.9063157466       -0.1413846635  SOLV      5046            0.0000000000
     15251      5057  TIP3      H1            -30.1267103985       -8.0795257466        0.2400953365  SOLV      5046            0.0000000000
     15252      5057  TIP3      H2            -30.5345503985       -9.5256257466        0.0547553365  SOLV      5046            0.0000000000
     15253      5058  TIP3      OH2           -39.8241603985      -12.6090557466       11.9177953365  SOLV      5047            0.0000000000
     15254      5058  TIP3      H1            -39.6013003985      -13.0270957466       12.7495453365  SOLV      5047            0.0000000000
     15255      5058  TIP3      H2            -40.4261503985      -13.2215557466       11.4950753365  SOLV      5047            0.0000000000
     15256      5059  TIP3      OH2           -32.8076703985      -13.0920657466       14.1307653365  SOLV      5048            0.0000000000
     15257      5059  TIP3      H1            -33.1035903985      -13.2577657466       13.2356753365  SOLV      5048            0.0000000000
     15258      5059  TIP3      H2            -31.8761503985      -13.3120357466       14.1201553365  SOLV      5048            0.0000000000
     15259      5060  TIP3      OH2           -28.1873903985       -7.7188657466       12.0205653365  SOLV      5049            0.0000000000
     15260      5060  TIP3      H1            -29.0879603985       -7.5356057466       11.7529553365  SOLV      5049            0.0000000000
     15261      5060  TIP3      H2            -28.1532803985       -7.4599357466       12.9414453365  SOLV      5049            0.0000000000
     15262      5061  TIP3      OH2           -22.4560603985      -15.4740757466        0.3878253365  SOLV      5050            0.0000000000
     15263      5061  TIP3      H1            -23.0104303985      -15.8702757466       -0.2844246635  SOLV      5050            0.0000000000
     15264      5061  TIP3      H2            -22.3557003985      -14.5635557466        0.1101553365  SOLV      5050            0.0000000000
     15265      5062  TIP3      OH2           -22.4928603985       -9.6739057466       13.2249753365  SOLV      5051            0.0000000000
     15266      5062  TIP3      H1            -23.3440103985       -9.4355257466       12.8576153365  SOLV      5051            0.0000000000
     15267      5062  TIP3      H2            -21.9025203985       -9.6905857466       12.4716853365  SOLV      5051            0.0000000000
     15268      5063  TIP3      OH2           -24.1608903985       -6.6880357466        0.8530353365  SOLV      5052            0.0000000000
     15269      5063  TIP3      H1            -24.5337803985       -7.5136557466        1.1620953365  SOLV      5052            0.0000000000
     15270      5063  TIP3      H2            -23.8835403985       -6.8710957466       -0.0446246635  SOLV      5052            0.0000000000
     15271      5064  TIP3      OH2           -27.0005003985      -11.8800857466        7.8742253365  SOLV      5053            0.0000000000
     15272      5064  TIP3      H1            -27.9288103985      -12.1118957466        7.8471553365  SOLV      5053            0.0000000000
     15273      5064  TIP3      H2            -26.5493903985      -12.6571057466        7.5441053365  SOLV      5053            0.0000000000
     15274      5065  TIP3      OH2           -34.4571903985       -7.5519257466        4.0070953365  SOLV      5054            0.0000000000
     15275      5065  TIP3      H1            -33.9299703985       -6.7784857466        3.8069753365  SOLV      5054            0.0000000000
     15276      5065  TIP3      H2            -35.3373403985       -7.3270057466        3.7054953365  SOLV      5054            0.0000000000
     15277      5066  TIP3      OH2           -38.7024203985      -12.6895157466       -1.4056646635  SOLV      5055            0.0000000000
     15278      5066  TIP3      H1            -38.0864303985      -12.0627957466       -1.0261846635  SOLV      5055            0.0000000000
     15279      5066  TIP3      H2            -39.5641603985      -12.3735357466       -1.1340146635  SOLV      5055            0.0000000000
     15280      5067  TIP3      OH2           -33.0299603985       -9.8889357466        3.5835253365  SOLV      5056            0.0000000000
     15281      5067  TIP3      H1            -33.2709603985       -8.9634957466        3.6250553365  SOLV      5056            0.0000000000
     15282      5067  TIP3      H2            -33.7706003985      -10.3478057466        3.9799153365  SOLV      5056            0.0000000000
     15283      5068  TIP3      OH2           -32.5153003985       -5.7395757466        9.8986353365  SOLV      5057            0.0000000000
     15284      5068  TIP3      H1            -32.1528303985       -4.8850157466        9.6650753365  SOLV      5057            0.0000000000
     15285      5068  TIP3      H2            -31.9837803985       -6.0314157466       10.6392653365  SOLV      5057            0.0000000000
     15286      5069  TIP3      OH2           -34.3468803985       -4.8671757466        3.1287453365  SOLV      5058            0.0000000000
     15287      5069  TIP3      H1            -35.2968303985       -4.7614357466        3.1800753365  SOLV      5058            0.0000000000
     15288      5069  TIP3      H2            -33.9950703985       -4.0464357466        3.4734953365  SOLV      5058            0.0000000000
     15289      5070  TIP3      OH2           -28.9712203985       -9.6405057466        9.5991953365  SOLV      5059            0.0000000000
     15290      5070  TIP3      H1            -29.3970903985       -9.8683357466       10.4255953365  SOLV      5059            0.0000000000
     15291      5070  TIP3      H2            -28.3906403985      -10.3793257466        9.4167253365  SOLV      5059            0.0000000000
     15292      5071  TIP3      OH2           -26.7683303985       -8.7114557466       -1.3269046635  SOLV      5060            0.0000000000
     15293      5071  TIP3      H1            -26.4150203985       -9.0914757466       -0.5225546635  SOLV      5060            0.0000000000
     15294      5071  TIP3      H2            -27.7169803985       -8.8049757466       -1.2399746635  SOLV      5060            0.0000000000
     15295      5072  TIP3      OH2           -26.3128003985       -5.0885557466       12.0686753365  SOLV      5061            0.0000000000
     15296      5072  TIP3      H1            -26.9144803985       -5.6442657466       11.5733053365  SOLV      5061            0.0000000000
     15297      5072  TIP3      H2            -26.0314303985       -4.4215757466       11.4424153365  SOLV      5061            0.0000000000
     15298      5073  TIP3      OH2           -22.2648903985       -4.2322057466       -1.1258846635  SOLV      5062            0.0000000000
     15299      5073  TIP3      H1            -21.5211003985       -3.6461557466       -1.2657246635  SOLV      5062            0.0000000000
     15300      5073  TIP3      H2            -22.9590803985       -3.6636257466       -0.7926446635  SOLV      5062            0.0000000000
     15301      5074  TIP3      OH2           -38.1902103985      -17.8557857466       11.4759353365  SOLV      5063            0.0000000000
     15302      5074  TIP3      H1            -39.0829803985      -17.5172457466       11.4083353365  SOLV      5063            0.0000000000
     15303      5074  TIP3      H2            -38.2889303985      -18.7111757466       11.8940153365  SOLV      5063            0.0000000000
     15304      5075  TIP3      OH2           -25.9024003985      -10.0392557466        0.8998853365  SOLV      5064            0.0000000000
     15305      5075  TIP3      H1            -26.1796403985      -10.7673257466        1.4559953365  SOLV      5064            0.0000000000
     15306      5075  TIP3      H2            -24.9751003985       -9.9200557466        1.1051453365  SOLV      5064            0.0000000000
     15307      5076  TIP3      OH2           -38.5390103985       -6.0513457466        9.9108753365  SOLV      5065            0.0000000000
     15308      5076  TIP3      H1            -38.3219803985       -6.9831057466        9.8798453365  SOLV      5065            0.0000000000
     15309      5076  TIP3      H2            -38.2926603985       -5.7768457466       10.7941553365  SOLV      5065            0.0000000000
     15310      5077  TIP3      OH2           -32.6775503985       -7.5998457466       -2.8799046635  SOLV      5066            0.0000000000
     15311      5077  TIP3      H1            -32.4385703985       -8.3480357466       -3.4270146635  SOLV      5066            0.0000000000
     15312      5077  TIP3      H2            -32.9464203985       -7.9876757466       -2.0471246635  SOLV      5066            0.0000000000
     15313      5078  TIP3      OH2           -33.7404903985       -8.0294657466       -0.4236446635  SOLV      5067            0.0000000000
     15314      5078  TIP3      H1            -33.5936903985       -8.5494857466        0.3664453365  SOLV      5067            0.0000000000
     15315      5078  TIP3      H2            -33.7433203985       -7.1227057466       -0.1170546635  SOLV      5067            0.0000000000
     15316      5079  TIP3      OH2           -37.2873803985      -10.7771357466        0.0868953365  SOLV      5068            0.0000000000
     15317      5079  TIP3      H1            -37.9734503985      -10.4248857466        0.6538653365  SOLV      5068            0.0000000000
     15318      5079  TIP3      H2            -36.7645903985      -10.0141757466       -0.1596746635  SOLV      5068            0.0000000000
     15319      5080  TIP3      OH2           -29.4558703985      -18.1147557466       10.3657953365  SOLV      5069            0.0000000000
     15320      5080  TIP3      H1            -28.7570803985      -18.0408857466       11.0157653365  SOLV      5069            0.0000000000
     15321      5080  TIP3      H2            -29.8367303985      -18.9792557466       10.5200853365  SOLV      5069            0.0000000000
     15322      5081  TIP3      OH2           -28.6713803985      -18.4625857466        1.4630253365  SOLV      5070            0.0000000000
     15323      5081  TIP3      H1            -28.4515503985      -17.9910457466        0.6595653365  SOLV      5070            0.0000000000
     15324      5081  TIP3      H2            -28.1129803985      -18.0683257466        2.1330853365  SOLV      5070            0.0000000000
     15325      5082  TIP3      OH2           -31.0027703985       -6.3321057466        0.3257753365  SOLV      5071            0.0000000000
     15326      5082  TIP3      H1            -31.8191603985       -5.8351357466        0.3782053365  SOLV      5071            0.0000000000
     15327      5082  TIP3      H2            -30.4731403985       -5.8567557466       -0.3143446635  SOLV      5071            0.0000000000
     15328      5083  TIP3      OH2           -31.4713903985      -16.7347057466        2.2978653365  SOLV      5072            0.0000000000
     15329      5083  TIP3      H1            -30.6591303985      -16.2303857466        2.3440353365  SOLV      5072            0.0000000000
     15330      5083  TIP3      H2            -31.7160903985      -16.8797357466        3.2118253365  SOLV      5072            0.0000000000
     15331      5084  TIP3      OH2           -30.9357503985      -15.7484357466       11.4825253365  SOLV      5073            0.0000000000
     15332      5084  TIP3      H1            -30.8167203985      -15.1748957466       12.2395653365  SOLV      5073            0.0000000000
     15333      5084  TIP3      H2            -30.2802903985      -16.4364957466       11.5973053365  SOLV      5073            0.0000000000
     15334      5085  TIP3      OH2           -30.5877203985      -19.6534057466        3.2359753365  SOLV      5074            0.0000000000
     15335      5085  TIP3      H1            -30.9343703985      -19.0363457466        3.8804053365  SOLV      5074            0.0000000000
     15336      5085  TIP3      H2            -29.9290303985      -19.1528357466        2.7545253365  SOLV      5074            0.0000000000
     15337      5086  TIP3      OH2           -33.6644603985       -5.2883857466        0.3074653365  SOLV      5075            0.0000000000
     15338      5086  TIP3      H1            -33.5035903985       -4.4886357466       -0.1932746635  SOLV      5075            0.0000000000
     15339      5086  TIP3      H2            -33.8616803985       -4.9817857466        1.1925253365  SOLV      5075            0.0000000000
     15340      5087  TIP3      OH2           -34.9300203985      -18.5904657466       -0.0767746635  SOLV      5076            0.0000000000
     15341      5087  TIP3      H1            -35.0135403985      -17.7021557466        0.2698653365  SOLV      5076            0.0000000000
     15342      5087  TIP3      H2            -34.0399903985      -18.8557957466        0.1549053365  SOLV      5076            0.0000000000
     15343      5088  TIP3      OH2           -24.7311703985      -17.8414057466       12.3174953365  SOLV      5077            0.0000000000
     15344      5088  TIP3      H1            -25.6475903985      -17.5792357466       12.2298653365  SOLV      5077            0.0000000000
     15345      5088  TIP3      H2            -24.3956703985      -17.8445057466       11.4210253365  SOLV      5077            0.0000000000
     15346      5089  TIP3      OH2           -26.1290703985      -14.0913057466        6.4132253365  SOLV      5078            0.0000000000
     15347      5089  TIP3      H1            -26.9266303985      -14.5062857466        6.0847253365  SOLV      5078            0.0000000000
     15348      5089  TIP3      H2            -25.6839603985      -14.7819357466        6.9042753365  SOLV      5078            0.0000000000
     15349      5090  TIP3      OH2           -36.6714903985       -8.1632457466       -1.0163246635  SOLV      5079            0.0000000000
     15350      5090  TIP3      H1            -36.0793403985       -7.4637657466       -0.7400846635  SOLV      5079            0.0000000000
     15351      5090  TIP3      H2            -36.2121903985       -8.5962957466       -1.7358646635  SOLV      5079            0.0000000000
     15352      5091  TIP3      OH2           -38.3555703985      -15.4989457466       -1.9003846635  SOLV      5080            0.0000000000
     15353      5091  TIP3      H1            -38.4003103985      -14.5596357466       -1.7216846635  SOLV      5080            0.0000000000
     15354      5091  TIP3      H2            -39.2432503985      -15.7344557466       -2.1701746635  SOLV      5080            0.0000000000
     15355      5092  TIP3      OH2           -25.0426103985       -4.8350557466        8.0355753365  SOLV      5081            0.0000000000
     15356      5092  TIP3      H1            -25.1981803985       -4.1566157466        7.3785053365  SOLV      5081            0.0000000000
     15357      5092  TIP3      H2            -24.1099703985       -4.7631257466        8.2386353365  SOLV      5081            0.0000000000
     15358      5093  TIP3      OH2           -38.6170403985       -6.7765757466        2.9332953365  SOLV      5082            0.0000000000
     15359      5093  TIP3      H1            -39.4491803985       -6.3043057466        2.9604353365  SOLV      5082            0.0000000000
     15360      5093  TIP3      H2            -38.0712103985       -6.2668157466        2.3346053365  SOLV      5082            0.0000000000
     15361      5094  TIP3      OH2           -39.3286703985       -4.1642057466       14.2630953365  SOLV      5083            0.0000000000
     15362      5094  TIP3      H1            -38.7884503985       -4.3808057466       15.0230153365  SOLV      5083            0.0000000000
     15363      5094  TIP3      H2            -39.8098703985       -4.9696057466       14.0733453365  SOLV      5083            0.0000000000
     15364      5095  TIP3      OH2           -34.7313303985       -5.2447657466       15.8835153365  SOLV      5084            0.0000000000
     15365      5095  TIP3      H1            -33.9636103985       -5.7036857466       16.2244353365  SOLV      5084            0.0000000000
     15366      5095  TIP3      H2            -34.7527103985       -5.4707857466       14.9536353365  SOLV      5084            0.0000000000
     15367      5096  TIP3      OH2           -30.6393703985       -5.7367057466       -2.7413046635  SOLV      5085            0.0000000000
     15368      5096  TIP3      H1            -31.2832703985       -6.3678457466       -2.4199346635  SOLV      5085            0.0000000000
     15369      5096  TIP3      H2            -29.8775403985       -6.2679057466       -2.9729546635  SOLV      5085            0.0000000000
     15370      5097  TIP3      OH2           -28.1544603985       -6.8646557466       14.6126653365  SOLV      5086            0.0000000000
     15371      5097  TIP3      H1            -28.5055103985       -7.7213557466       14.8557053365  SOLV      5086            0.0000000000
     15372      5097  TIP3      H2            -27.4281403985       -6.7219857466       15.2195653365  SOLV      5086            0.0000000000
     15373      5098  TIP3      OH2           -26.0350803985       -5.9197157466       -2.5075046635  SOLV      5087            0.0000000000
     15374      5098  TIP3      H1            -25.7520403985       -6.7141957466       -2.0548146635  SOLV      5087            0.0000000000
     15375      5098  TIP3      H2            -25.2952903985       -5.6866157466       -3.0683946635  SOLV      5087            0.0000000000
     15376      5099  TIP3      OH2           -39.4217203985      -10.3537957466       15.2175253365  SOLV      5088            0.0000000000
     15377      5099  TIP3      H1            -39.2776703985      -11.2557257466       14.9311953365  SOLV      5088            0.0000000000
     15378      5099  TIP3      H2            -40.1939803985      -10.0675857466       14.7297553365  SOLV      5088            0.0000000000
     15379      5100  TIP3      OH2           -35.0803503985      -10.0102257466       -2.6500146635  SOLV      5089            0.0000000000
     15380      5100  TIP3      H1            -35.0159403985      -10.8042657466       -2.1193746635  SOLV      5089            0.0000000000
     15381      5100  TIP3      H2            -34.4274303985      -10.1289457466       -3.3398146635  SOLV      5089            0.0000000000
     15382      5101  TIP3      OH2           -32.7661103985      -10.3839857466       14.6501653365  SOLV      5090            0.0000000000
     15383      5101  TIP3      H1            -33.0947303985      -10.1131757466       13.7929053365  SOLV      5090            0.0000000000
     15384      5101  TIP3      H2            -32.6142903985      -11.3250057466       14.5626653365  SOLV      5090            0.0000000000
     15385      5102  TIP3      OH2           -29.7280103985       -8.9630557466       -2.9142146635  SOLV      5091            0.0000000000
     15386      5102  TIP3      H1            -29.9966003985       -8.7828457466       -2.0133246635  SOLV      5091            0.0000000000
     15387      5102  TIP3      H2            -29.9344503985       -9.8884357466       -3.0456346635  SOLV      5091            0.0000000000
     15388      5103  TIP3      OH2           -27.0315903985      -10.4682557466       12.0333953365  SOLV      5092            0.0000000000
     15389      5103  TIP3      H1            -26.2861103985       -9.8798857466       11.9137953365  SOLV      5092            0.0000000000
     15390      5103  TIP3      H2            -27.7889103985       -9.8862857466       12.0967053365  SOLV      5092            0.0000000000
     15391      5104  TIP3      OH2           -38.5890703985      -13.1534657466       14.6374553365  SOLV      5093            0.0000000000
     15392      5104  TIP3      H1            -38.1809503985      -14.0108057466       14.5165153365  SOLV      5093            0.0000000000
     15393      5104  TIP3      H2            -38.8493103985      -13.1393357466       15.5584853365  SOLV      5093            0.0000000000
     15394      5105  TIP3      OH2           -33.9309703985      -12.0376057466       -0.3442146635  SOLV      5094            0.0000000000
     15395      5105  TIP3      H1            -34.3907703985      -12.5217757466        0.3416353365  SOLV      5094            0.0000000000
     15396      5105  TIP3      H2            -33.6761003985      -12.7060657466       -0.9801646635  SOLV      5094            0.0000000000
     15397      5106  TIP3      OH2           -34.6420403985      -14.1448957466       12.0117453365  SOLV      5095            0.0000000000
     15398      5106  TIP3      H1            -35.2604303985      -13.4702357466       12.2922153365  SOLV      5095            0.0000000000
     15399      5106  TIP3      H2            -34.2979203985      -13.8235057466       11.1783653365  SOLV      5095            0.0000000000
     15400      5107  TIP3      OH2           -32.8599303985      -13.7944257466       -2.0818946635  SOLV      5096            0.0000000000
     15401      5107  TIP3      H1            -33.0404303985      -13.9493057466       -3.0090646635  SOLV      5096            0.0000000000
     15402      5107  TIP3      H2            -31.9098803985      -13.6865557466       -2.0371046635  SOLV      5096            0.0000000000
     15403      5108  TIP3      OH2           -29.6222203985      -11.6733657466       15.2892253365  SOLV      5097            0.0000000000
     15404      5108  TIP3      H1            -28.6691003985      -11.5894557466       15.2618253365  SOLV      5097            0.0000000000
     15405      5108  TIP3      H2            -29.7827603985      -12.3851857466       15.9087153365  SOLV      5097            0.0000000000
     15406      5109  TIP3      OH2           -23.4701003985      -11.4400057466       -2.6360846635  SOLV      5098            0.0000000000
     15407      5109  TIP3      H1            -23.7436203985      -11.8644557466       -3.4492546635  SOLV      5098            0.0000000000
     15408      5109  TIP3      H2            -23.4306903985      -10.5085557466       -2.8530446635  SOLV      5098            0.0000000000
     15409      5110  TIP3      OH2           -34.3026703985      -16.7898157466       13.0940553365  SOLV      5099            0.0000000000
     15410      5110  TIP3      H1            -34.1525803985      -17.5186857466       12.4920253365  SOLV      5099            0.0000000000
     15411      5110  TIP3      H2            -34.3004303985      -16.0126457466       12.5352753365  SOLV      5099            0.0000000000
     15412      5111  TIP3      OH2           -33.8901003985      -18.4202357466       10.5867953365  SOLV      5100            0.0000000000
     15413      5111  TIP3      H1            -33.3543503985      -17.9685657466        9.9347253365  SOLV      5100            0.0000000000
     15414      5111  TIP3      H2            -34.7421403985      -18.5282557466       10.1642053365  SOLV      5100            0.0000000000
     15415      5112  TIP3      OH2           -32.3082603985      -12.9806157466       10.8263153365  SOLV      5101            0.0000000000
     15416      5112  TIP3      H1            -31.5577803985      -13.1368657466       10.2530953365  SOLV      5101            0.0000000000
     15417      5112  TIP3      H2            -32.6474303985      -12.1289557466       10.5508653365  SOLV      5101            0.0000000000
     15418      5113  TIP3      OH2           -27.8926403985      -15.1654357466       15.8548453365  SOLV      5102            0.0000000000
     15419      5113  TIP3      H1            -27.7005103985      -16.0964957466       15.7432953365  SOLV      5102            0.0000000000
     15420      5113  TIP3      H2            -27.0350103985      -14.7404857466       15.8443853365  SOLV      5102            0.0000000000
     15421      5114  TIP3      OH2           -26.5759203985      -12.3769157466       13.9321153365  SOLV      5103            0.0000000000
     15422      5114  TIP3      H1            -26.8574203985      -11.6674557466       13.3544953365  SOLV      5103            0.0000000000
     15423      5114  TIP3      H2            -25.6334903985      -12.4496157466       13.7812353365  SOLV      5103            0.0000000000
     15424      5115  TIP3      OH2           -35.8240403985      -15.5914657466       15.0056153365  SOLV      5104            0.0000000000
     15425      5115  TIP3      H1            -36.5911403985      -16.1239857466       14.7953753365  SOLV      5104            0.0000000000
     15426      5115  TIP3      H2            -35.1451403985      -15.9014257466       14.4062453365  SOLV      5104            0.0000000000
     15427      5116  TIP3      OH2           -33.0845503985      -20.9636657466       11.0181553365  SOLV      5105            0.0000000000
     15428      5116  TIP3      H1            -33.1825903985      -20.0173457466       10.9127753365  SOLV      5105            0.0000000000
     15429      5116  TIP3      H2            -33.8269303985      -21.3362857466       10.5425053365  SOLV      5105            0.0000000000
     15430      5117  TIP3      OH2           -31.8205003985      -16.6421257466       14.5819953365  SOLV      5106            0.0000000000
     15431      5117  TIP3      H1            -32.0559603985      -16.8614557466       15.4834853365  SOLV      5106            0.0000000000
     15432      5117  TIP3      H2            -32.6038103985      -16.8490057466       14.0722453365  SOLV      5106            0.0000000000
     15433      5118  TIP3      OH2           -29.1048403985      -17.5147757466       13.6573453365  SOLV      5107            0.0000000000
     15434      5118  TIP3      H1            -30.0523003985      -17.4828057466       13.7896753365  SOLV      5107            0.0000000000
     15435      5118  TIP3      H2            -28.7921703985      -18.1400657466       14.3111653365  SOLV      5107            0.0000000000
     15436      5119  TIP3      OH2           -27.4706903985      -18.8806657466       15.6625353365  SOLV      5108            0.0000000000
     15437      5119  TIP3      H1            -27.5675103985      -19.8329357466       15.6567253365  SOLV      5108            0.0000000000
     15438      5119  TIP3      H2            -27.7923803985      -18.6119857466       16.5230853365  SOLV      5108            0.0000000000
     15439      5120  TIP3      OH2           -37.6437603985      -17.6710857466       14.7100853365  SOLV      5109            0.0000000000
     15440      5120  TIP3      H1            -37.4320203985      -18.3774757466       14.0998353365  SOLV      5109            0.0000000000
     15441      5120  TIP3      H2            -37.7550103985      -18.1084857466       15.5542053365  SOLV      5109            0.0000000000
     15442      5121  TIP3      OH2           -32.8627403985      -21.6699257466       13.6894353365  SOLV      5110            0.0000000000
     15443      5121  TIP3      H1            -32.1509003985      -22.3097057466       13.6753453365  SOLV      5110            0.0000000000
     15444      5121  TIP3      H2            -32.9637003985      -21.4030957466       12.7757453365  SOLV      5110            0.0000000000
     15445      5122  TIP3      OH2           -32.5089903985      -19.9870857466       15.7430653365  SOLV      5111            0.0000000000
     15446      5122  TIP3      H1            -32.6407703985      -20.4627057466       14.9229153365  SOLV      5111            0.0000000000
     15447      5122  TIP3      H2            -33.1082503985      -19.2427257466       15.6877753365  SOLV      5111            0.0000000000
     15448      5123  TIP3      OH2           -32.9627603985       -3.1040557466       -1.0805346635  SOLV      5112            0.0000000000
     15449      5123  TIP3      H1            -32.0296903985       -2.9461857466       -0.9366946635  SOLV      5112            0.0000000000
     15450      5123  TIP3      H2            -33.2268803985       -2.4287557466       -1.7053846635  SOLV      5112            0.0000000000
     15451      5124  TIP3      OH2           -39.3942703985       -8.4676757466       -1.5977246635  SOLV      5113            0.0000000000
     15452      5124  TIP3      H1            -38.4803503985       -8.3887857466       -1.3243346635  SOLV      5113            0.0000000000
     15453      5124  TIP3      H2            -39.3869603985       -9.1547157466       -2.2641646635  SOLV      5113            0.0000000000
     15454      5125  TIP3      OH2           -39.8752903985       -4.9941257466        5.2842853365  SOLV      5114            0.0000000000
     15455      5125  TIP3      H1            -40.2096103985       -5.8743957466        5.4563053365  SOLV      5114            0.0000000000
     15456      5125  TIP3      H2            -39.6530503985       -4.6486257466        6.1488453365  SOLV      5114            0.0000000000
     15457      5126  TIP3      OH2           -22.3268103985       -4.1844857466        8.2647653365  SOLV      5115            0.0000000000
     15458      5126  TIP3      H1            -22.3481403985       -3.9996457466        9.2037053365  SOLV      5115            0.0000000000
     15459      5126  TIP3      H2            -21.6361903985       -3.6160857466        7.9239053365  SOLV      5115            0.0000000000
     15460      5127  TIP3      OH2           -22.7635203985       -4.6173757466       11.1866753365  SOLV      5116            0.0000000000
     15461      5127  TIP3      H1            -23.2506503985       -5.3529657466       10.8154153365  SOLV      5116            0.0000000000
     15462      5127  TIP3      H2            -22.2142503985       -5.0109857466       11.8646153365  SOLV      5116            0.0000000000
     15463      5128  TIP3      OH2           -24.3127903985       -8.8275657466       15.8247053365  SOLV      5117            0.0000000000
     15464      5128  TIP3      H1            -25.1786803985       -8.9325957466       16.2189353365  SOLV      5117            0.0000000000
     15465      5128  TIP3      H2            -23.9362003985       -8.0692357466       16.2711753365  SOLV      5117            0.0000000000
     15466      5129  TIP3      OH2           -23.0118203985      -10.5711957466        1.3389553365  SOLV      5118            0.0000000000
     15467      5129  TIP3      H1            -22.1616803985      -10.1501057466        1.4661153365  SOLV      5118            0.0000000000
     15468      5129  TIP3      H2            -23.0063103985      -11.3111857466        1.9460953365  SOLV      5118            0.0000000000
     15469      5130  TIP3      OH2           -22.6172603985      -12.5174557466        3.1625253365  SOLV      5119            0.0000000000
     15470      5130  TIP3      H1            -23.3438003985      -12.9971957466        3.5602853365  SOLV      5119            0.0000000000
     15471      5130  TIP3      H2            -22.0359303985      -12.3119857466        3.8946853365  SOLV      5119            0.0000000000
     15472      5131  TIP3      OH2           -22.8581403985       -9.7327057466        8.1102853365  SOLV      5120            0.0000000000
     15473      5131  TIP3      H1            -22.0247203985      -10.1107057466        7.8296453365  SOLV      5120            0.0000000000
     15474      5131  TIP3      H2            -22.7461103985       -8.7895857466        7.9911953365  SOLV      5120            0.0000000000
     15475      5132  TIP3      OH2           -24.3719103985       -6.8549557466       10.4171253365  SOLV      5121            0.0000000000
     15476      5132  TIP3      H1            -25.0193803985       -6.5298057466       11.0426453365  SOLV      5121            0.0000000000
     15477      5132  TIP3      H2            -24.8895103985       -7.2951857466        9.7429553365  SOLV      5121            0.0000000000
     15478      5133  TIP3      OH2           -22.3489503985      -12.6166057466       -0.4463446635  SOLV      5122            0.0000000000
     15479      5133  TIP3      H1            -22.8708403985      -12.2601957466       -1.1652546635  SOLV      5122            0.0000000000
     15480      5133  TIP3      H2            -22.3820303985      -11.9418257466        0.2317453365  SOLV      5122            0.0000000000
     15481      5134  TIP3      OH2           -24.0000503985      -15.3770457466       -1.8956346635  SOLV      5123            0.0000000000
     15482      5134  TIP3      H1            -23.9036103985      -14.7103457466       -2.5756646635  SOLV      5123            0.0000000000
     15483      5134  TIP3      H2            -24.1400903985      -16.1924157466       -2.3770846635  SOLV      5123            0.0000000000
     15484      5135  TIP3      OH2           -24.8305803985      -13.9968057466        3.7253953365  SOLV      5124            0.0000000000
     15485      5135  TIP3      H1            -24.9807003985      -14.9419457466        3.7051753365  SOLV      5124            0.0000000000
     15486      5135  TIP3      H2            -25.1841303985      -13.7156657466        4.5693053365  SOLV      5124            0.0000000000
     15487      5136  TIP3      OH2           -39.7953403985      -11.9185857466        7.7357753365  SOLV      5125            0.0000000000
     15488      5136  TIP3      H1            -39.6110503985      -12.0004157466        6.8000653365  SOLV      5125            0.0000000000
     15489      5136  TIP3      H2            -38.9460503985      -12.0428857466        8.1594153365  SOLV      5125            0.0000000000
     15490      5137  TIP3      OH2           -23.9742903985      -12.0264757466       13.3642253365  SOLV      5126            0.0000000000
     15491      5137  TIP3      H1            -23.3915603985      -12.7612457466       13.5559453365  SOLV      5126            0.0000000000
     15492      5137  TIP3      H2            -23.4103603985      -11.2544457466       13.4108053365  SOLV      5126            0.0000000000
     15493      5138  TIP3      OH2           -22.4775803985      -14.1238957466       14.0487653365  SOLV      5127            0.0000000000
     15494      5138  TIP3      H1            -23.3409103985      -14.5026857466       13.8832353365  SOLV      5127            0.0000000000
     15495      5138  TIP3      H2            -21.8732103985      -14.8624157466       13.9743453365  SOLV      5127            0.0000000000
     15496      5139  TIP3      OH2           -24.7526703985      -17.9690657466       -2.7780846635  SOLV      5128            0.0000000000
     15497      5139  TIP3      H1            -24.1420903985      -18.3403857466       -2.1412646635  SOLV      5128            0.0000000000
     15498      5139  TIP3      H2            -25.5895203985      -18.3903757466       -2.5820846635  SOLV      5128            0.0000000000
     15499      5140  TIP3      OH2           -25.1201003985      -16.4142257466        2.1879053365  SOLV      5129            0.0000000000
     15500      5140  TIP3      H1            -24.8403903985      -17.3211857466        2.3120753365  SOLV      5129            0.0000000000
     15501      5140  TIP3      H2            -24.3609303985      -15.9800757466        1.7988253365  SOLV      5129            0.0000000000
     15502      5141  TIP3      OH2           -24.5082703985      -15.8324857466        7.6237953365  SOLV      5130            0.0000000000
     15503      5141  TIP3      H1            -23.5754703985      -15.6204957466        7.5893953365  SOLV      5130            0.0000000000
     15504      5141  TIP3      H2            -24.7435203985      -15.7312757466        8.5460953365  SOLV      5130            0.0000000000
     15505      5142  TIP3      OH2           -24.4790803985      -15.0959557466       10.3997353365  SOLV      5131            0.0000000000
     15506      5142  TIP3      H1            -25.3219503985      -14.8279157466       10.7657153365  SOLV      5131            0.0000000000
     15507      5142  TIP3      H2            -24.0366503985      -14.2737657466       10.1888453365  SOLV      5131            0.0000000000
     15508      5143  TIP3      OH2           -40.1978603985      -16.6480857466       13.8766553365  SOLV      5132            0.0000000000
     15509      5143  TIP3      H1            -39.2783703985      -16.7702557466       14.1129653365  SOLV      5132            0.0000000000
     15510      5143  TIP3      H2            -40.6474103985      -17.3981157466       14.2660053365  SOLV      5132            0.0000000000
     15511      5144  TIP3      OH2           -22.1959203985      -21.1159357466       15.7532353365  SOLV      5133            0.0000000000
     15512      5144  TIP3      H1            -21.8462203985      -21.7695857466       15.1477053365  SOLV      5133            0.0000000000
     15513      5144  TIP3      H2            -22.0489703985      -20.2785257466       15.3134953365  SOLV      5133            0.0000000000
     15514      5145  TIP3      OH2           -24.5066203985      -19.1512957466        2.2361053365  SOLV      5134            0.0000000000
     15515      5145  TIP3      H1            -24.3241203985      -19.6001457466        3.0616053365  SOLV      5134            0.0000000000
     15516      5145  TIP3      H2            -25.1063303985      -19.7358557466        1.7725653365  SOLV      5134            0.0000000000
     15517      5146  TIP3      OH2           -38.9766103985      -18.3359257466        6.7679453365  SOLV      5135            0.0000000000
     15518      5146  TIP3      H1            -38.5314503985      -19.1276757466        7.0699153365  SOLV      5135            0.0000000000
     15519      5146  TIP3      H2            -38.5103103985      -17.6194057466        7.1985053365  SOLV      5135            0.0000000000
     15520      5147  TIP3      OH2           -40.6725803985      -15.3366257466        7.8369653365  SOLV      5136            0.0000000000
     15521      5147  TIP3      H1            -40.1806003985      -15.5575757466        7.0461653365  SOLV      5136            0.0000000000
     15522      5147  TIP3      H2            -40.3104903985      -14.4962857466        8.1179153365  SOLV      5136            0.0000000000
     15523      5148  TIP3      OH2           -22.6762003985      -19.0064757466       14.1023653365  SOLV      5137            0.0000000000
     15524      5148  TIP3      H1            -23.5936303985      -18.7357657466       14.0667153365  SOLV      5137            0.0000000000
     15525      5148  TIP3      H2            -22.5532603985      -19.5416357466       13.3183353365  SOLV      5137            0.0000000000
     15526      5149  TIP3      OH2           -22.6400003985      -19.0834857466       -1.2358646635  SOLV      5138            0.0000000000
     15527      5149  TIP3      H1            -22.2277403985      -19.8049157466       -1.7110646635  SOLV      5138            0.0000000000
     15528      5149  TIP3      H2            -21.9583503985      -18.4140257466       -1.1774346635  SOLV      5138            0.0000000000
     15529      5150  TIP3      OH2           -25.5882103985       -4.0945457466        3.8369453365  SOLV      5139            0.0000000000
     15530      5150  TIP3      H1            -24.9359203985       -4.4423357466        3.2288553365  SOLV      5139            0.0000000000
     15531      5150  TIP3      H2            -25.0778303985       -3.6062257466        4.4829153365  SOLV      5139            0.0000000000
     15532      5151  TIP3      OH2           -38.2034603985       -7.1654057466       14.3800353365  SOLV      5140            0.0000000000
     15533      5151  TIP3      H1            -39.0242103985       -6.9907557466       13.9195053365  SOLV      5140            0.0000000000
     15534      5151  TIP3      H2            -38.4556803985       -7.2389357466       15.3004753365  SOLV      5140            0.0000000000
     15535      5152  TIP3      OH2           -35.2491703985       -6.1912857466       10.6384353365  SOLV      5141            0.0000000000
     15536      5152  TIP3      H1            -35.6740603985       -5.3814357466       10.3558953365  SOLV      5141            0.0000000000
     15537      5152  TIP3      H2            -34.3448903985       -6.1058757466       10.3364153365  SOLV      5141            0.0000000000
     15538      5153  TIP3      OH2           -30.9380303985       -4.7922857466       13.5978053365  SOLV      5142            0.0000000000
     15539      5153  TIP3      H1            -30.7532803985       -5.1256757466       14.4758353365  SOLV      5142            0.0000000000
     15540      5153  TIP3      H2            -30.0915803985       -4.4824257466       13.2757253365  SOLV      5142            0.0000000000
     15541      5154  TIP3      OH2           -23.6756103985      -20.9168457466       11.9214453365  SOLV      5143            0.0000000000
     15542      5154  TIP3      H1            -24.4882603985      -20.5918157466       11.5339153365  SOLV      5143            0.0000000000
     15543      5154  TIP3      H2            -23.4427603985      -21.6769957466       11.3883553365  SOLV      5143            0.0000000000
     15544      5155  TIP3      OH2           -37.8475003985       -2.9348957466       10.6859653365  SOLV      5144            0.0000000000
     15545      5155  TIP3      H1            -38.5678603985       -2.4947957466       10.2347353365  SOLV      5144            0.0000000000
     15546      5155  TIP3      H2            -38.2131003985       -3.1854257466       11.5343653365  SOLV      5144            0.0000000000
     15547      5156  TIP3      OH2           -35.3802403985       -3.3345057466        9.7156853365  SOLV      5145            0.0000000000
     15548      5156  TIP3      H1            -36.2450203985       -3.2626557466       10.1196953365  SOLV      5145            0.0000000000
     15549      5156  TIP3      H2            -35.4353403985       -2.7877757466        8.9319353365  SOLV      5145            0.0000000000
     15550      5157  TIP3      OH2           -30.6696803985       -3.4466157466        8.8912853365  SOLV      5146            0.0000000000
     15551      5157  TIP3      H1            -31.1262803985       -2.9176457466        8.2371253365  SOLV      5146            0.0000000000
     15552      5157  TIP3      H2            -30.5068803985       -2.8434757466        9.6165153365  SOLV      5146            0.0000000000
     15553      5158  TIP3      OH2           -28.3420503985       -4.5686557466        9.8363153365  SOLV      5147            0.0000000000
     15554      5158  TIP3      H1            -29.2466803985       -4.4036357466        9.5705253365  SOLV      5147            0.0000000000
     15555      5158  TIP3      H2            -27.9131903985       -3.7154357466        9.7706553365  SOLV      5147            0.0000000000
     15556      5159  TIP3      OH2           -25.7378603985       -2.9987457466       10.1310953365  SOLV      5148            0.0000000000
     15557      5159  TIP3      H1            -25.9196603985       -2.0828557466        9.9205853365  SOLV      5148            0.0000000000
     15558      5159  TIP3      H2            -25.5610803985       -3.4090357466        9.2845553365  SOLV      5148            0.0000000000
     15559      5160  TIP3      OH2           -38.4326903985       -4.3116457466        7.5961453365  SOLV      5149            0.0000000000
     15560      5160  TIP3      H1            -38.4510903985       -4.7371357466        8.4533753365  SOLV      5149            0.0000000000
     15561      5160  TIP3      H2            -37.6279003985       -4.6301457466        7.1873653365  SOLV      5149            0.0000000000
     15562      5161  TIP3      OH2           -36.2913803985       -5.6017757466        6.2511353365  SOLV      5150            0.0000000000
     15563      5161  TIP3      H1            -36.5103103985       -6.5180357466        6.4207353365  SOLV      5150            0.0000000000
     15564      5161  TIP3      H2            -35.4671603985       -5.4617357466        6.7172753365  SOLV      5150            0.0000000000
     15565      5162  TIP3      OH2           -33.7541303985       -5.1318457466        7.0999353365  SOLV      5151            0.0000000000
     15566      5162  TIP3      H1            -33.5415603985       -6.0199457466        6.8130253365  SOLV      5151            0.0000000000
     15567      5162  TIP3      H2            -33.6896203985       -5.1660757466        8.0543353365  SOLV      5151            0.0000000000
     15568      5163  TIP3      OH2           -30.2457603985      -19.4677857466        6.2442653365  SOLV      5152            0.0000000000
     15569      5163  TIP3      H1            -30.9200803985      -20.0972257466        6.4998453365  SOLV      5152            0.0000000000
     15570      5163  TIP3      H2            -29.6818403985      -19.9518957466        5.6410553365  SOLV      5152            0.0000000000
     15571      5164  TIP3      OH2           -25.1030403985      -21.3603857466        6.3569753365  SOLV      5153            0.0000000000
     15572      5164  TIP3      H1            -24.4992803985      -20.8128457466        5.8550753365  SOLV      5153            0.0000000000
     15573      5164  TIP3      H2            -25.9728403985      -21.0413457466        6.1163853365  SOLV      5153            0.0000000000
     15574      5165  TIP3      OH2           -23.3760003985      -20.2215157466        4.6900653365  SOLV      5154            0.0000000000
     15575      5165  TIP3      H1            -22.7642503985      -20.7359457466        4.1634253365  SOLV      5154            0.0000000000
     15576      5165  TIP3      H2            -22.9936603985      -19.3443057466        4.7135053365  SOLV      5154            0.0000000000
     15577      5166  TIP3      OH2           -33.3397503985      -20.9070457466        3.8795653365  SOLV      5155            0.0000000000
     15578      5166  TIP3      H1            -32.4654103985      -20.5186157466        3.8499953365  SOLV      5155            0.0000000000
     15579      5166  TIP3      H2            -33.4756703985      -21.1222657466        4.8022853365  SOLV      5155            0.0000000000
     15580      5167  TIP3      OH2           -27.7829103985      -20.8770657466        5.5287353365  SOLV      5156            0.0000000000
     15581      5167  TIP3      H1            -27.7067503985      -20.7819057466        4.5793353365  SOLV      5156            0.0000000000
     15582      5167  TIP3      H2            -28.0579903985      -21.7847757466        5.6576453365  SOLV      5156            0.0000000000
     15583      5168  TIP3      OH2           -26.4296503985      -20.8512857466        1.2212353365  SOLV      5157            0.0000000000
     15584      5168  TIP3      H1            -27.1325403985      -20.2363657466        1.0113753365  SOLV      5157            0.0000000000
     15585      5168  TIP3      H2            -26.8745103985      -21.6886157466        1.3523253365  SOLV      5157            0.0000000000
     15586      5169  TIP3      OH2           -39.1817203985       -5.0877257466        0.7673753365  SOLV      5158            0.0000000000
     15587      5169  TIP3      H1            -39.8667303985       -5.1258357466        0.0998853365  SOLV      5158            0.0000000000
     15588      5169  TIP3      H2            -39.1780003985       -4.1749657466        1.0555853365  SOLV      5158            0.0000000000
     15589      5170  TIP3      OH2           -37.2217603985      -19.1197957466       -1.6877246635  SOLV      5159            0.0000000000
     15590      5170  TIP3      H1            -36.7304203985      -19.7495557466       -2.2151746635  SOLV      5159            0.0000000000
     15591      5170  TIP3      H2            -36.5981303985      -18.8238557466       -1.0246046635  SOLV      5159            0.0000000000
     15592      5171  TIP3      OH2           -32.1957503985      -18.8266457466        0.7693253365  SOLV      5160            0.0000000000
     15593      5171  TIP3      H1            -32.0176203985      -19.4733257466        1.4521853365  SOLV      5160            0.0000000000
     15594      5171  TIP3      H2            -32.2491303985      -17.9928757466        1.2364353365  SOLV      5160            0.0000000000
     15595      5172  TIP3      OH2           -30.3173703985       -3.8782357466       -0.8350046635  SOLV      5161            0.0000000000
     15596      5172  TIP3      H1            -29.4513503985       -3.5114957466       -1.0131846635  SOLV      5161            0.0000000000
     15597      5172  TIP3      H2            -30.5640903985       -4.3174357466       -1.6489246635  SOLV      5161            0.0000000000
     15598      5173  TIP3      OH2           -23.6084103985       -4.3152057466        1.8441053365  SOLV      5162            0.0000000000
     15599      5173  TIP3      H1            -23.8027003985       -5.0629957466        1.2790653365  SOLV      5162            0.0000000000
     15600      5173  TIP3      H2            -23.6474003985       -3.5571957466        1.2608953365  SOLV      5162            0.0000000000
     15601      5174  TIP3      OH2           -37.9612103985      -20.3195657466       13.5838753365  SOLV      5163            0.0000000000
     15602      5174  TIP3      H1            -38.3273903985      -21.0853057466       14.0263453365  SOLV      5163            0.0000000000
     15603      5174  TIP3      H2            -37.0483603985      -20.2905457466       13.8703853365  SOLV      5163            0.0000000000
     15604      5175  TIP3      OH2           -35.9881303985      -20.9691257466       15.1195853365  SOLV      5164            0.0000000000
     15605      5175  TIP3      H1            -35.0897703985      -21.2431057466       14.9349253365  SOLV      5164            0.0000000000
     15606      5175  TIP3      H2            -36.3748203985      -21.7115257466       15.5838453365  SOLV      5164            0.0000000000
     15607      5176  TIP3      OH2           -37.3636003985       -4.1676457466       -2.2074146635  SOLV      5165            0.0000000000
     15608      5176  TIP3      H1            -37.6311403985       -3.8813557466       -1.3341046635  SOLV      5165            0.0000000000
     15609      5176  TIP3      H2            -36.5923403985       -4.7137257466       -2.0551646635  SOLV      5165            0.0000000000
     15610      5177  TIP3      OH2           -27.5669003985      -21.6365957466       15.3018653365  SOLV      5166            0.0000000000
     15611      5177  TIP3      H1            -27.4901803985      -22.0625257466       16.1556353365  SOLV      5166            0.0000000000
     15612      5177  TIP3      H2            -26.6732403985      -21.6231257466       14.9592153365  SOLV      5166            0.0000000000
     15613      5178  TIP3      OH2           -24.3907903985       -5.5639657466       13.9942853365  SOLV      5167            0.0000000000
     15614      5178  TIP3      H1            -25.1726003985       -5.7501657466       13.4743453365  SOLV      5167            0.0000000000
     15615      5178  TIP3      H2            -24.4628003985       -4.6345357466       14.2115353365  SOLV      5167            0.0000000000
     15616      5179  TIP3      OH2            -9.9847503985      -11.6775257466        4.0250053365  SOLV      5168            0.0000000000
     15617      5179  TIP3      H1             -9.8956403985      -10.7337057466        3.8927153365  SOLV      5168            0.0000000000
     15618      5179  TIP3      H2            -10.6229903985      -11.9528857466        3.3669453365  SOLV      5168            0.0000000000
     15619      5180  TIP3      OH2           -11.0516203985      -12.4224557466        7.4438253365  SOLV      5169            0.0000000000
     15620      5180  TIP3      H1            -11.0898703985      -13.0688257466        8.1487853365  SOLV      5169            0.0000000000
     15621      5180  TIP3      H2            -11.3739703985      -12.8890157466        6.6726953365  SOLV      5169            0.0000000000
     15622      5181  TIP3      OH2           -18.6831203985      -12.8082457466        9.0368153365  SOLV      5170            0.0000000000
     15623      5181  TIP3      H1            -18.6419103985      -13.4339157466        9.7600553365  SOLV      5170            0.0000000000
     15624      5181  TIP3      H2            -17.9803503985      -12.1843857466        9.2188553365  SOLV      5170            0.0000000000
     15625      5182  TIP3      OH2           -17.7598103985       -8.3583557466        7.5717253365  SOLV      5171            0.0000000000
     15626      5182  TIP3      H1            -18.1292903985       -9.1603057466        7.2021553365  SOLV      5171            0.0000000000
     15627      5182  TIP3      H2            -16.8187003985       -8.5268657466        7.6180653365  SOLV      5171            0.0000000000
     15628      5183  TIP3      OH2           -21.1497603985      -14.6980957466        2.9646053365  SOLV      5172            0.0000000000
     15629      5183  TIP3      H1            -21.5974203985      -13.8522257466        2.9462553365  SOLV      5172            0.0000000000
     15630      5183  TIP3      H2            -21.7106403985      -15.2776757466        2.4491153365  SOLV      5172            0.0000000000
     15631      5184  TIP3      OH2           -20.4391503985      -12.5361357466        5.0904053365  SOLV      5173            0.0000000000
     15632      5184  TIP3      H1            -20.2258003985      -13.3059757466        5.6177053365  SOLV      5173            0.0000000000
     15633      5184  TIP3      H2            -19.7013903985      -12.4464657466        4.4871653365  SOLV      5173            0.0000000000
     15634      5185  TIP3      OH2           -10.2340503985       -4.3792457466        5.9573753365  SOLV      5174            0.0000000000
     15635      5185  TIP3      H1             -9.6144103985       -5.0557757466        5.6842953365  SOLV      5174            0.0000000000
     15636      5185  TIP3      H2            -10.4423103985       -4.5971657466        6.8658653365  SOLV      5174            0.0000000000
     15637      5186  TIP3      OH2           -12.6621803985       -9.9903157466        7.8499253365  SOLV      5175            0.0000000000
     15638      5186  TIP3      H1            -12.3583903985      -10.6761757466        7.2553353365  SOLV      5175            0.0000000000
     15639      5186  TIP3      H2            -11.9407803985       -9.8714457466        8.4677253365  SOLV      5175            0.0000000000
     15640      5187  TIP3      OH2            -3.9992003985      -18.3887857466        8.7105453365  SOLV      5176            0.0000000000
     15641      5187  TIP3      H1             -3.9499803985      -17.7786657466        9.4464553365  SOLV      5176            0.0000000000
     15642      5187  TIP3      H2             -3.5736903985      -17.9276957466        7.9876553365  SOLV      5176            0.0000000000
     15643      5188  TIP3      OH2            -9.5214803985      -15.5960757466        8.1774053365  SOLV      5177            0.0000000000
     15644      5188  TIP3      H1             -9.3788903985      -16.5423757466        8.1975653365  SOLV      5177            0.0000000000
     15645      5188  TIP3      H2             -9.6275803985      -15.3890957466        7.2488953365  SOLV      5177            0.0000000000
     15646      5189  TIP3      OH2           -16.3666503985      -17.4944357466        5.4498853365  SOLV      5178            0.0000000000
     15647      5189  TIP3      H1            -16.3235403985      -16.6345857466        5.0315153365  SOLV      5178            0.0000000000
     15648      5189  TIP3      H2            -16.8242403985      -18.0469657466        4.8162053365  SOLV      5178            0.0000000000
     15649      5190  TIP3      OH2            -8.6443803985      -17.3638757466        3.8507153365  SOLV      5179            0.0000000000
     15650      5190  TIP3      H1             -7.9979503985      -17.6925557466        4.4754753365  SOLV      5179            0.0000000000
     15651      5190  TIP3      H2             -8.1344403985      -16.8459757466        3.2278553365  SOLV      5179            0.0000000000
     15652      5191  TIP3      OH2           -19.7465003985      -15.0978557466        6.2120253365  SOLV      5180            0.0000000000
     15653      5191  TIP3      H1            -19.0928403985      -15.6476857466        6.6440353365  SOLV      5180            0.0000000000
     15654      5191  TIP3      H2            -19.7225703985      -15.3719557466        5.2952253365  SOLV      5180            0.0000000000
     15655      5192  TIP3      OH2           -14.5900503985      -13.5477257466        5.4271753365  SOLV      5181            0.0000000000
     15656      5192  TIP3      H1            -13.9739503985      -14.0741857466        5.9365753365  SOLV      5181            0.0000000000
     15657      5192  TIP3      H2            -15.1761703985      -14.1878557466        5.0235353365  SOLV      5181            0.0000000000
     15658      5193  TIP3      OH2            -3.6077403985      -16.9108657466       10.9465253365  SOLV      5182            0.0000000000
     15659      5193  TIP3      H1             -4.2962803985      -16.2527957466       10.8511853365  SOLV      5182            0.0000000000
     15660      5193  TIP3      H2             -3.5922803985      -17.1080757466       11.8830653365  SOLV      5182            0.0000000000
     15661      5194  TIP3      OH2           -17.5564603985      -18.5765957466        9.5239653365  SOLV      5183            0.0000000000
     15662      5194  TIP3      H1            -17.7752903985      -18.0465357466        8.7575653365  SOLV      5183            0.0000000000
     15663      5194  TIP3      H2            -18.2243703985      -18.3500457466       10.1711053365  SOLV      5183            0.0000000000
     15664      5195  TIP3      OH2           -10.1874803985       -9.0764857466        3.0678753365  SOLV      5184            0.0000000000
     15665      5195  TIP3      H1            -10.4829703985       -9.3992557466        2.2165653365  SOLV      5184            0.0000000000
     15666      5195  TIP3      H2            -10.5117003985       -8.1768157466        3.1091353365  SOLV      5184            0.0000000000
     15667      5196  TIP3      OH2           -14.9873203985      -10.9010257466        9.8113353365  SOLV      5185            0.0000000000
     15668      5196  TIP3      H1            -15.7274103985      -10.3028757466        9.9148553365  SOLV      5185            0.0000000000
     15669      5196  TIP3      H2            -14.2733703985      -10.3470657466        9.4956953365  SOLV      5185            0.0000000000
     15670      5197  TIP3      OH2            -6.8805403985      -18.0729457466        5.8313053365  SOLV      5186            0.0000000000
     15671      5197  TIP3      H1             -7.0957403985      -18.8386057466        6.3639053365  SOLV      5186            0.0000000000
     15672      5197  TIP3      H2             -6.2248003985      -17.6004857466        6.3441553365  SOLV      5186            0.0000000000
     15673      5198  TIP3      OH2           -17.9627303985      -16.6844157466        7.4761853365  SOLV      5187            0.0000000000
     15674      5198  TIP3      H1            -17.3491003985      -16.0516557466        7.8494253365  SOLV      5187            0.0000000000
     15675      5198  TIP3      H2            -17.4506603985      -17.1569157466        6.8198753365  SOLV      5187            0.0000000000
     15676      5199  TIP3      OH2           -16.5798903985       -8.9367257466       10.5984853365  SOLV      5188            0.0000000000
     15677      5199  TIP3      H1            -16.5851303985       -8.0573757466       10.2204153365  SOLV      5188            0.0000000000
     15678      5199  TIP3      H2            -17.4334803985       -9.0203157466       11.0234753365  SOLV      5188            0.0000000000
     15679      5200  TIP3      OH2           -20.4588003985       -9.2659357466        1.3804153365  SOLV      5189            0.0000000000
     15680      5200  TIP3      H1            -20.7307103985       -9.0368357466        0.4917053365  SOLV      5189            0.0000000000
     15681      5200  TIP3      H2            -20.4132303985       -8.4280557466        1.8409453365  SOLV      5189            0.0000000000
     15682      5201  TIP3      OH2            -6.5331303985      -19.3578157466        9.5106553365  SOLV      5190            0.0000000000
     15683      5201  TIP3      H1             -7.2692103985      -18.7471057466        9.4727853365  SOLV      5190            0.0000000000
     15684      5201  TIP3      H2             -5.8497303985      -18.9429157466        8.9842953365  SOLV      5190            0.0000000000
     15685      5202  TIP3      OH2           -13.5299903985      -21.2710857466        6.9764553365  SOLV      5191            0.0000000000
     15686      5202  TIP3      H1            -13.6475703985      -22.2194857466        6.9222853365  SOLV      5191            0.0000000000
     15687      5202  TIP3      H2            -14.3849803985      -20.9384757466        7.2495653365  SOLV      5191            0.0000000000
     15688      5203  TIP3      OH2            -8.5817103985       -5.8629957466        4.7184253365  SOLV      5192            0.0000000000
     15689      5203  TIP3      H1             -8.1564803985       -6.5702057466        4.2333853365  SOLV      5192            0.0000000000
     15690      5203  TIP3      H2             -8.2647103985       -5.0617257466        4.3016453365  SOLV      5192            0.0000000000
     15691      5204  TIP3      OH2            -7.4220603985       -7.9621457466        3.2270853365  SOLV      5193            0.0000000000
     15692      5204  TIP3      H1             -7.6795803985       -8.6521357466        2.6156753365  SOLV      5193            0.0000000000
     15693      5204  TIP3      H2             -7.3509803985       -8.4050257466        4.0726753365  SOLV      5193            0.0000000000
     15694      5205  TIP3      OH2            -5.7360403985       -9.3954757466       11.7044353365  SOLV      5194            0.0000000000
     15695      5205  TIP3      H1             -5.5964103985       -9.9872257466       10.9651353365  SOLV      5194            0.0000000000
     15696      5205  TIP3      H2             -5.5687603985       -8.5228857466       11.3483153365  SOLV      5194            0.0000000000
     15697      5206  TIP3      OH2           -11.2635003985      -12.4335257466        1.4770353365  SOLV      5195            0.0000000000
     15698      5206  TIP3      H1            -11.9749503985      -11.8985557466        1.1250853365  SOLV      5195            0.0000000000
     15699      5206  TIP3      H2            -10.5725403985      -12.3783157466        0.8169253365  SOLV      5195            0.0000000000
     15700      5207  TIP3      OH2           -11.2095803985      -13.9760957466       -1.4844646635  SOLV      5196            0.0000000000
     15701      5207  TIP3      H1            -10.5085903985      -13.9534057466       -0.8330646635  SOLV      5196            0.0000000000
     15702      5207  TIP3      H2            -10.9072903985      -14.6041257466       -2.1405346635  SOLV      5196            0.0000000000
     15703      5208  TIP3      OH2            -3.8941103985      -13.0556757466        9.7704753365  SOLV      5197            0.0000000000
     15704      5208  TIP3      H1             -4.5467003985      -12.3611157466        9.8595653365  SOLV      5197            0.0000000000
     15705      5208  TIP3      H2             -3.4290803985      -12.8455857466        8.9606353365  SOLV      5197            0.0000000000
     15706      5209  TIP3      OH2            -7.8577303985      -12.2241957466        2.4286253365  SOLV      5198            0.0000000000
     15707      5209  TIP3      H1             -8.5896303985      -11.9958257466        3.0016853365  SOLV      5198            0.0000000000
     15708      5209  TIP3      H2             -7.4105103985      -12.9379257466        2.8833753365  SOLV      5198            0.0000000000
     15709      5210  TIP3      OH2            -7.9603803985      -14.0499357466       11.4963253365  SOLV      5199            0.0000000000
     15710      5210  TIP3      H1             -7.8804703985      -13.2864957466       12.0681753365  SOLV      5199            0.0000000000
     15711      5210  TIP3      H2             -8.5616103985      -13.7706957466       10.8058353365  SOLV      5199            0.0000000000
     15712      5211  TIP3      OH2           -16.2123603985      -11.5935757466        4.3111253365  SOLV      5200            0.0000000000
     15713      5211  TIP3      H1            -16.5428403985      -11.9642357466        3.4928253365  SOLV      5200            0.0000000000
     15714      5211  TIP3      H2            -15.6239503985      -12.2641757466        4.6579553365  SOLV      5200            0.0000000000
     15715      5212  TIP3      OH2           -14.8456103985       -8.1655157466        6.9923453365  SOLV      5201            0.0000000000
     15716      5212  TIP3      H1            -14.9404803985       -8.7442057466        6.2358053365  SOLV      5201            0.0000000000
     15717      5212  TIP3      H2            -14.1162503985       -8.5369457466        7.4886253365  SOLV      5201            0.0000000000
     15718      5213  TIP3      OH2           -15.8458103985      -12.8250157466        7.9446253365  SOLV      5202            0.0000000000
     15719      5213  TIP3      H1            -15.2805603985      -12.7035957466        7.1817453365  SOLV      5202            0.0000000000
     15720      5213  TIP3      H2            -15.5269203985      -12.1875157466        8.5834753365  SOLV      5202            0.0000000000
     15721      5214  TIP3      OH2            -9.5365903985       -7.3218257466        8.6786753365  SOLV      5203            0.0000000000
     15722      5214  TIP3      H1             -9.7769303985       -6.6595157466        9.3265953365  SOLV      5203            0.0000000000
     15723      5214  TIP3      H2             -9.7347703985       -8.1563057466        9.1036353365  SOLV      5203            0.0000000000
     15724      5215  TIP3      OH2           -14.9657403985       -8.4257457466       12.6618153365  SOLV      5204            0.0000000000
     15725      5215  TIP3      H1            -15.2769903985       -7.6434257466       13.1171353365  SOLV      5204            0.0000000000
     15726      5215  TIP3      H2            -15.6157203985       -8.5788357466       11.9760153365  SOLV      5204            0.0000000000
     15727      5216  TIP3      OH2            -8.9867803985      -13.0619057466        0.1137453365  SOLV      5205            0.0000000000
     15728      5216  TIP3      H1             -8.4072303985      -12.9118757466        0.8606353365  SOLV      5205            0.0000000000
     15729      5216  TIP3      H2             -8.5727803985      -12.5911657466       -0.6096146635  SOLV      5205            0.0000000000
     15730      5217  TIP3      OH2           -18.0457503985      -12.2276357466       11.8903853365  SOLV      5206            0.0000000000
     15731      5217  TIP3      H1            -17.9754303985      -11.5769557466       12.5888853365  SOLV      5206            0.0000000000
     15732      5217  TIP3      H2            -18.9365303985      -12.1248857466       11.5554753365  SOLV      5206            0.0000000000
     15733      5218  TIP3      OH2           -11.2602903985       -6.3250557466        3.5490553365  SOLV      5207            0.0000000000
     15734      5218  TIP3      H1            -10.7865303985       -6.0294257466        4.3264753365  SOLV      5207            0.0000000000
     15735      5218  TIP3      H2            -11.8233603985       -5.5868957466        3.3160153365  SOLV      5207            0.0000000000
     15736      5219  TIP3      OH2           -16.7261503985       -6.3542457466       13.4251953365  SOLV      5208            0.0000000000
     15737      5219  TIP3      H1            -16.7186203985       -6.4902757466       12.4777453365  SOLV      5208            0.0000000000
     15738      5219  TIP3      H2            -17.6421103985       -6.4714357466       13.6771953365  SOLV      5208            0.0000000000
     15739      5220  TIP3      OH2            -5.2879403985      -21.3118657466       -0.0732846635  SOLV      5209            0.0000000000
     15740      5220  TIP3      H1             -6.1878703985      -21.1729657466        0.2217753365  SOLV      5209            0.0000000000
     15741      5220  TIP3      H2             -5.0361003985      -20.4804057466       -0.4751146635  SOLV      5209            0.0000000000
     15742      5221  TIP3      OH2           -17.2220903985      -12.5241457466        1.9004053365  SOLV      5210            0.0000000000
     15743      5221  TIP3      H1            -17.5139603985      -11.7559757466        1.4095353365  SOLV      5210            0.0000000000
     15744      5221  TIP3      H2            -17.8965703985      -13.1835257466        1.7375453365  SOLV      5210            0.0000000000
     15745      5222  TIP3      OH2            -4.0988003985       -6.9456257466       -1.6968946635  SOLV      5211            0.0000000000
     15746      5222  TIP3      H1             -4.0254503985       -6.0066057466       -1.5263646635  SOLV      5211            0.0000000000
     15747      5222  TIP3      H2             -3.1932903985       -7.2507657466       -1.7531646635  SOLV      5211            0.0000000000
     15748      5223  TIP3      OH2           -21.1290803985      -10.1612257466       10.7153853365  SOLV      5212            0.0000000000
     15749      5223  TIP3      H1            -21.6302403985      -10.1892857466        9.9003553365  SOLV      5212            0.0000000000
     15750      5223  TIP3      H2            -21.1237103985      -11.0669057466       11.0251153365  SOLV      5212            0.0000000000
     15751      5224  TIP3      OH2           -21.3788103985       -7.3808457466        7.5994053365  SOLV      5213            0.0000000000
     15752      5224  TIP3      H1            -20.4327503985       -7.5251457466        7.5803553365  SOLV      5213            0.0000000000
     15753      5224  TIP3      H2            -21.4911803985       -6.5965657466        8.1365253365  SOLV      5213            0.0000000000
     15754      5225  TIP3      OH2            -3.1809603985       -6.7148757466       13.2817753365  SOLV      5214            0.0000000000
     15755      5225  TIP3      H1             -3.2302803985       -7.6700657466       13.2445353365  SOLV      5214            0.0000000000
     15756      5225  TIP3      H2             -4.0077303985       -6.4473457466       13.6831553365  SOLV      5214            0.0000000000
     15757      5226  TIP3      OH2           -12.2025603985       -7.1409557466       12.1579153365  SOLV      5215            0.0000000000
     15758      5226  TIP3      H1            -12.1151003985       -6.3144957466       12.6328253365  SOLV      5215            0.0000000000
     15759      5226  TIP3      H2            -13.0660503985       -7.4705757466       12.4068453365  SOLV      5215            0.0000000000
     15760      5227  TIP3      OH2           -18.1346003985       -4.5798857466        3.7448753365  SOLV      5216            0.0000000000
     15761      5227  TIP3      H1            -17.9825603985       -4.9278457466        4.6235253365  SOLV      5216            0.0000000000
     15762      5227  TIP3      H2            -18.9855603985       -4.9361557466        3.4895953365  SOLV      5216            0.0000000000
     15763      5228  TIP3      OH2            -8.6863803985       -4.2145657466       -1.0337846635  SOLV      5217            0.0000000000
     15764      5228  TIP3      H1             -8.3115403985       -4.9589557466       -1.5045246635  SOLV      5217            0.0000000000
     15765      5228  TIP3      H2             -8.6820103985       -4.4845057466       -0.1154546635  SOLV      5217            0.0000000000
     15766      5229  TIP3      OH2            -9.0175703985       -4.2888557466        1.7154353365  SOLV      5218            0.0000000000
     15767      5229  TIP3      H1             -9.9525903985       -4.1886657466        1.8941353365  SOLV      5218            0.0000000000
     15768      5229  TIP3      H2             -8.7373803985       -4.9982557466        2.2937553365  SOLV      5218            0.0000000000
     15769      5230  TIP3      OH2            -6.0289803985      -15.2216257466       13.7619953365  SOLV      5219            0.0000000000
     15770      5230  TIP3      H1             -6.4363003985      -14.7410657466       13.0413253365  SOLV      5219            0.0000000000
     15771      5230  TIP3      H2             -5.9884103985      -16.1270257466       13.4540753365  SOLV      5219            0.0000000000
     15772      5231  TIP3      OH2           -18.8800303985       -8.8376857466       11.7586653365  SOLV      5220            0.0000000000
     15773      5231  TIP3      H1            -18.6639003985       -9.1991257466       12.6182453365  SOLV      5220            0.0000000000
     15774      5231  TIP3      H2            -19.7355603985       -9.2123057466       11.5490153365  SOLV      5220            0.0000000000
     15775      5232  TIP3      OH2           -16.2612303985      -20.3676357466        7.7540853365  SOLV      5221            0.0000000000
     15776      5232  TIP3      H1            -17.1228603985      -20.4548157466        7.3463753365  SOLV      5221            0.0000000000
     15777      5232  TIP3      H2            -16.2836603985      -19.5116257466        8.1818453365  SOLV      5221            0.0000000000
     15778      5233  TIP3      OH2           -11.5984503985      -20.6455957466       11.1287853365  SOLV      5222            0.0000000000
     15779      5233  TIP3      H1            -11.1781403985      -21.0608857466       11.8818453365  SOLV      5222            0.0000000000
     15780      5233  TIP3      H2            -12.5314903985      -20.8242657466       11.2459853365  SOLV      5222            0.0000000000
     15781      5234  TIP3      OH2            -8.2719603985      -16.8900757466       11.9822353365  SOLV      5223            0.0000000000
     15782      5234  TIP3      H1             -8.7860103985      -17.0158557466       12.7798353365  SOLV      5223            0.0000000000
     15783      5234  TIP3      H2             -8.4274903985      -15.9777657466       11.7378553365  SOLV      5223            0.0000000000
     15784      5235  TIP3      OH2            -7.5094703985      -12.0290757466       -2.2564646635  SOLV      5224            0.0000000000
     15785      5235  TIP3      H1             -7.4673903985      -12.2516857466       -3.1864646635  SOLV      5224            0.0000000000
     15786      5235  TIP3      H2             -6.6602603985      -11.6303657466       -2.0664746635  SOLV      5224            0.0000000000
     15787      5236  TIP3      OH2           -11.9367203985      -18.1532557466       -1.5861346635  SOLV      5225            0.0000000000
     15788      5236  TIP3      H1            -12.1902403985      -18.1340957466       -0.6633246635  SOLV      5225            0.0000000000
     15789      5236  TIP3      H2            -12.1935103985      -19.0247157466       -1.8875146635  SOLV      5225            0.0000000000
     15790      5237  TIP3      OH2           -16.1702203985      -15.4021857466        8.8491053365  SOLV      5226            0.0000000000
     15791      5237  TIP3      H1            -16.8120103985      -15.4424557466        9.5581153365  SOLV      5226            0.0000000000
     15792      5237  TIP3      H2            -16.1330203985      -14.4757157466        8.6114053365  SOLV      5226            0.0000000000
     15793      5238  TIP3      OH2           -16.1733103985      -15.1811757466        3.7611053365  SOLV      5227            0.0000000000
     15794      5238  TIP3      H1            -17.0660203985      -15.5215657466        3.7024853365  SOLV      5227            0.0000000000
     15795      5238  TIP3      H2            -15.7226503985      -15.5580857466        3.0054253365  SOLV      5227            0.0000000000
     15796      5239  TIP3      OH2           -10.6377603985      -14.7651457466        2.5781853365  SOLV      5228            0.0000000000
     15797      5239  TIP3      H1            -11.0467303985      -13.9502857466        2.2866653365  SOLV      5228            0.0000000000
     15798      5239  TIP3      H2             -9.9171403985      -14.9051357466        1.9638953365  SOLV      5228            0.0000000000
     15799      5240  TIP3      OH2           -11.5356003985      -14.5895057466       14.0662553365  SOLV      5229            0.0000000000
     15800      5240  TIP3      H1            -12.0982203985      -15.2943457466       14.3870353365  SOLV      5229            0.0000000000
     15801      5240  TIP3      H2            -10.7092603985      -14.7103157466       14.5340153365  SOLV      5229            0.0000000000
     15802      5241  TIP3      OH2            -9.6329903985      -15.3191057466        5.3921553365  SOLV      5230            0.0000000000
     15803      5241  TIP3      H1             -9.8285403985      -14.7134257466        4.6772153365  SOLV      5230            0.0000000000
     15804      5241  TIP3      H2             -9.4517303985      -16.1525857466        4.9577853365  SOLV      5230            0.0000000000
     15805      5242  TIP3      OH2           -18.4201703985      -15.0818357466       10.7163053365  SOLV      5231            0.0000000000
     15806      5242  TIP3      H1            -18.4582303985      -14.6816757466       11.5850153365  SOLV      5231            0.0000000000
     15807      5242  TIP3      H2            -18.9110603985      -15.8985957466       10.8065953365  SOLV      5231            0.0000000000
     15808      5243  TIP3      OH2           -21.8120903985      -17.9656557466        4.5667753365  SOLV      5232            0.0000000000
     15809      5243  TIP3      H1            -21.1813203985      -17.9944457466        5.2861653365  SOLV      5232            0.0000000000
     15810      5243  TIP3      H2            -21.3626603985      -18.3907857466        3.8363653365  SOLV      5232            0.0000000000
     15811      5244  TIP3      OH2           -20.5378803985      -17.2194557466       -0.0091846635  SOLV      5233            0.0000000000
     15812      5244  TIP3      H1            -20.0637103985      -16.6284657466       -0.5940946635  SOLV      5233            0.0000000000
     15813      5244  TIP3      H2            -21.2552403985      -16.6891657466        0.3378253365  SOLV      5233            0.0000000000
     15814      5245  TIP3      OH2           -10.3690703985      -13.6809757466       10.0633953365  SOLV      5234            0.0000000000
     15815      5245  TIP3      H1            -10.0455903985      -14.3120057466        9.4204453365  SOLV      5234            0.0000000000
     15816      5245  TIP3      H2            -10.8091403985      -14.2157557466       10.7241353365  SOLV      5234            0.0000000000
     15817      5246  TIP3      OH2           -13.5917803985      -17.7534257466        4.8475153365  SOLV      5235            0.0000000000
     15818      5246  TIP3      H1            -14.5026703985      -17.6967457466        5.1361153365  SOLV      5235            0.0000000000
     15819      5246  TIP3      H2            -13.0864903985      -17.8138757466        5.6582353365  SOLV      5235            0.0000000000
     15820      5247  TIP3      OH2           -18.7634403985      -16.1247957466        3.6742753365  SOLV      5236            0.0000000000
     15821      5247  TIP3      H1            -19.6526403985      -16.0252457466        3.3342353365  SOLV      5236            0.0000000000
     15822      5247  TIP3      H2            -18.4669503985      -16.9664957466        3.3280653365  SOLV      5236            0.0000000000
     15823      5248  TIP3      OH2           -15.1102603985      -16.1245357466        1.3307353365  SOLV      5237            0.0000000000
     15824      5248  TIP3      H1            -14.1787103985      -15.9955357466        1.5090453365  SOLV      5237            0.0000000000
     15825      5248  TIP3      H2            -15.3252303985      -15.4551057466        0.6812053365  SOLV      5237            0.0000000000
     15826      5249  TIP3      OH2            -9.1865903985      -18.5187957466        8.1116953365  SOLV      5238            0.0000000000
     15827      5249  TIP3      H1             -9.8634303985      -18.3874857466        8.7756653365  SOLV      5238            0.0000000000
     15828      5249  TIP3      H2             -9.6721003985      -18.6738457466        7.3014653365  SOLV      5238            0.0000000000
     15829      5250  TIP3      OH2           -16.4362403985      -14.9303157466       -1.1026546635  SOLV      5239            0.0000000000
     15830      5250  TIP3      H1            -16.9787303985      -15.3099357466       -1.7938946635  SOLV      5239            0.0000000000
     15831      5250  TIP3      H2            -15.6027503985      -14.7358457466       -1.5312446635  SOLV      5239            0.0000000000
     15832      5251  TIP3      OH2            -5.8990803985       -2.8472557466       14.3884553365  SOLV      5240            0.0000000000
     15833      5251  TIP3      H1             -5.6992103985       -2.4230657466       13.5539853365  SOLV      5240            0.0000000000
     15834      5251  TIP3      H2             -5.2437103985       -2.5034357466       14.9954953365  SOLV      5240            0.0000000000
     15835      5252  TIP3      OH2           -18.3011003985      -10.3731257466       13.9965053365  SOLV      5241            0.0000000000
     15836      5252  TIP3      H1            -17.5688603985      -10.1185357466       14.5579553365  SOLV      5241            0.0000000000
     15837      5252  TIP3      H2            -19.0812303985      -10.1685857466       14.5120453365  SOLV      5241            0.0000000000
     15838      5253  TIP3      OH2           -12.2718103985      -14.9661257466        6.7344753365  SOLV      5242            0.0000000000
     15839      5253  TIP3      H1            -11.7074703985      -15.5124657466        6.1874353365  SOLV      5242            0.0000000000
     15840      5253  TIP3      H2            -12.4194703985      -15.4879357466        7.5232353365  SOLV      5242            0.0000000000
     15841      5254  TIP3      OH2           -17.2698403985      -18.8295157466        3.1529553365  SOLV      5243            0.0000000000
     15842      5254  TIP3      H1            -17.5868903985      -19.7319857466        3.1174953365  SOLV      5243            0.0000000000
     15843      5254  TIP3      H2            -16.4884303985      -18.8277757466        2.6001153365  SOLV      5243            0.0000000000
     15844      5255  TIP3      OH2           -13.6452203985      -16.5775157466        9.1485153365  SOLV      5244            0.0000000000
     15845      5255  TIP3      H1            -14.4806903985      -16.1235657466        9.2587553365  SOLV      5244            0.0000000000
     15846      5255  TIP3      H2            -13.1211603985      -16.3016657466        9.9005053365  SOLV      5244            0.0000000000
     15847      5256  TIP3      OH2           -13.1009603985      -10.3647457466        0.8331553365  SOLV      5245            0.0000000000
     15848      5256  TIP3      H1            -13.8458603985      -10.8722157466        0.5109453365  SOLV      5245            0.0000000000
     15849      5256  TIP3      H2            -13.2352403985      -10.3159457466        1.7796353365  SOLV      5245            0.0000000000
     15850      5257  TIP3      OH2            -5.9510703985      -11.2319257466        9.6199153365  SOLV      5246            0.0000000000
     15851      5257  TIP3      H1             -5.3091903985      -10.7752957466        9.0761353365  SOLV      5246            0.0000000000
     15852      5257  TIP3      H2             -6.7813803985      -11.1186857466        9.1573253365  SOLV      5246            0.0000000000
     15853      5258  TIP3      OH2            -9.2032803985      -17.5507557466       -0.9675846635  SOLV      5247            0.0000000000
     15854      5258  TIP3      H1            -10.1418603985      -17.4391957466       -1.1187046635  SOLV      5247            0.0000000000
     15855      5258  TIP3      H2             -8.9060703985      -16.6940657466       -0.6610146635  SOLV      5247            0.0000000000
     15856      5259  TIP3      OH2           -11.5817503985      -10.1804157466       12.0700653365  SOLV      5248            0.0000000000
     15857      5259  TIP3      H1            -11.9271403985      -10.5621757466       12.8770253365  SOLV      5248            0.0000000000
     15858      5259  TIP3      H2            -11.7817403985       -9.2470557466       12.1413553365  SOLV      5248            0.0000000000
     15859      5260  TIP3      OH2            -8.4849303985      -15.6834857466        0.6931553365  SOLV      5249            0.0000000000
     15860      5260  TIP3      H1             -7.5930303985      -15.8209857466        1.0122753365  SOLV      5249            0.0000000000
     15861      5260  TIP3      H2             -8.4285703985      -14.8928757466        0.1565053365  SOLV      5249            0.0000000000
     15862      5261  TIP3      OH2           -17.9761303985      -11.0697457466        6.6029453365  SOLV      5250            0.0000000000
     15863      5261  TIP3      H1            -17.2314103985      -11.0721757466        6.0015953365  SOLV      5250            0.0000000000
     15864      5261  TIP3      H2            -17.8984703985      -11.8933657466        7.0844553365  SOLV      5250            0.0000000000
     15865      5262  TIP3      OH2           -10.9755503985       -8.9063157466       -0.1413846635  SOLV      5251            0.0000000000
     15866      5262  TIP3      H1            -11.2707103985       -8.0795257466        0.2400953365  SOLV      5251            0.0000000000
     15867      5262  TIP3      H2            -11.6785503985       -9.5256257466        0.0547553365  SOLV      5251            0.0000000000
     15868      5263  TIP3      OH2           -20.9681603985      -12.6090557466       11.9177953365  SOLV      5252            0.0000000000
     15869      5263  TIP3      H1            -20.7453003985      -13.0270957466       12.7495453365  SOLV      5252            0.0000000000
     15870      5263  TIP3      H2            -21.5701503985      -13.2215557466       11.4950753365  SOLV      5252            0.0000000000
     15871      5264  TIP3      OH2           -13.9516703985      -13.0920657466       14.1307653365  SOLV      5253            0.0000000000
     15872      5264  TIP3      H1            -14.2475903985      -13.2577657466       13.2356753365  SOLV      5253            0.0000000000
     15873      5264  TIP3      H2            -13.0201503985      -13.3120357466       14.1201553365  SOLV      5253            0.0000000000
     15874      5265  TIP3      OH2            -9.3313903985       -7.7188657466       12.0205653365  SOLV      5254            0.0000000000
     15875      5265  TIP3      H1            -10.2319603985       -7.5356057466       11.7529553365  SOLV      5254            0.0000000000
     15876      5265  TIP3      H2             -9.2972803985       -7.4599357466       12.9414453365  SOLV      5254            0.0000000000
     15877      5266  TIP3      OH2            -3.6000603985      -15.4740757466        0.3878253365  SOLV      5255            0.0000000000
     15878      5266  TIP3      H1             -4.1544303985      -15.8702757466       -0.2844246635  SOLV      5255            0.0000000000
     15879      5266  TIP3      H2             -3.4997003985      -14.5635557466        0.1101553365  SOLV      5255            0.0000000000
     15880      5267  TIP3      OH2            -3.6368603985       -9.6739057466       13.2249753365  SOLV      5256            0.0000000000
     15881      5267  TIP3      H1             -4.4880103985       -9.4355257466       12.8576153365  SOLV      5256            0.0000000000
     15882      5267  TIP3      H2             -3.0465203985       -9.6905857466       12.4716853365  SOLV      5256            0.0000000000
     15883      5268  TIP3      OH2            -5.3048903985       -6.6880357466        0.8530353365  SOLV      5257            0.0000000000
     15884      5268  TIP3      H1             -5.6777803985       -7.5136557466        1.1620953365  SOLV      5257            0.0000000000
     15885      5268  TIP3      H2             -5.0275403985       -6.8710957466       -0.0446246635  SOLV      5257            0.0000000000
     15886      5269  TIP3      OH2            -8.1445003985      -11.8800857466        7.8742253365  SOLV      5258            0.0000000000
     15887      5269  TIP3      H1             -9.0728103985      -12.1118957466        7.8471553365  SOLV      5258            0.0000000000
     15888      5269  TIP3      H2             -7.6933903985      -12.6571057466        7.5441053365  SOLV      5258            0.0000000000
     15889      5270  TIP3      OH2           -15.6011903985       -7.5519257466        4.0070953365  SOLV      5259            0.0000000000
     15890      5270  TIP3      H1            -15.0739703985       -6.7784857466        3.8069753365  SOLV      5259            0.0000000000
     15891      5270  TIP3      H2            -16.4813403985       -7.3270057466        3.7054953365  SOLV      5259            0.0000000000
     15892      5271  TIP3      OH2           -19.8464203985      -12.6895157466       -1.4056646635  SOLV      5260            0.0000000000
     15893      5271  TIP3      H1            -19.2304303985      -12.0627957466       -1.0261846635  SOLV      5260            0.0000000000
     15894      5271  TIP3      H2            -20.7081603985      -12.3735357466       -1.1340146635  SOLV      5260            0.0000000000
     15895      5272  TIP3      OH2           -14.1739603985       -9.8889357466        3.5835253365  SOLV      5261            0.0000000000
     15896      5272  TIP3      H1            -14.4149603985       -8.9634957466        3.6250553365  SOLV      5261            0.0000000000
     15897      5272  TIP3      H2            -14.9146003985      -10.3478057466        3.9799153365  SOLV      5261            0.0000000000
     15898      5273  TIP3      OH2           -13.6593003985       -5.7395757466        9.8986353365  SOLV      5262            0.0000000000
     15899      5273  TIP3      H1            -13.2968303985       -4.8850157466        9.6650753365  SOLV      5262            0.0000000000
     15900      5273  TIP3      H2            -13.1277803985       -6.0314157466       10.6392653365  SOLV      5262            0.0000000000
     15901      5274  TIP3      OH2           -15.4908803985       -4.8671757466        3.1287453365  SOLV      5263            0.0000000000
     15902      5274  TIP3      H1            -16.4408303985       -4.7614357466        3.1800753365  SOLV      5263            0.0000000000
     15903      5274  TIP3      H2            -15.1390703985       -4.0464357466        3.4734953365  SOLV      5263            0.0000000000
     15904      5275  TIP3      OH2           -10.1152203985       -9.6405057466        9.5991953365  SOLV      5264            0.0000000000
     15905      5275  TIP3      H1            -10.5410903985       -9.8683357466       10.4255953365  SOLV      5264            0.0000000000
     15906      5275  TIP3      H2             -9.5346403985      -10.3793257466        9.4167253365  SOLV      5264            0.0000000000
     15907      5276  TIP3      OH2            -7.9123303985       -8.7114557466       -1.3269046635  SOLV      5265            0.0000000000
     15908      5276  TIP3      H1             -7.5590203985       -9.0914757466       -0.5225546635  SOLV      5265            0.0000000000
     15909      5276  TIP3      H2             -8.8609803985       -8.8049757466       -1.2399746635  SOLV      5265            0.0000000000
     15910      5277  TIP3      OH2            -7.4568003985       -5.0885557466       12.0686753365  SOLV      5266            0.0000000000
     15911      5277  TIP3      H1             -8.0584803985       -5.6442657466       11.5733053365  SOLV      5266            0.0000000000
     15912      5277  TIP3      H2             -7.1754303985       -4.4215757466       11.4424153365  SOLV      5266            0.0000000000
     15913      5278  TIP3      OH2            -3.4088903985       -4.2322057466       -1.1258846635  SOLV      5267            0.0000000000
     15914      5278  TIP3      H1             -2.6651003985       -3.6461557466       -1.2657246635  SOLV      5267            0.0000000000
     15915      5278  TIP3      H2             -4.1030803985       -3.6636257466       -0.7926446635  SOLV      5267            0.0000000000
     15916      5279  TIP3      OH2           -19.3342103985      -17.8557857466       11.4759353365  SOLV      5268            0.0000000000
     15917      5279  TIP3      H1            -20.2269803985      -17.5172457466       11.4083353365  SOLV      5268            0.0000000000
     15918      5279  TIP3      H2            -19.4329303985      -18.7111757466       11.8940153365  SOLV      5268            0.0000000000
     15919      5280  TIP3      OH2            -7.0464003985      -10.0392557466        0.8998853365  SOLV      5269            0.0000000000
     15920      5280  TIP3      H1             -7.3236403985      -10.7673257466        1.4559953365  SOLV      5269            0.0000000000
     15921      5280  TIP3      H2             -6.1191003985       -9.9200557466        1.1051453365  SOLV      5269            0.0000000000
     15922      5281  TIP3      OH2           -19.6830103985       -6.0513457466        9.9108753365  SOLV      5270            0.0000000000
     15923      5281  TIP3      H1            -19.4659803985       -6.9831057466        9.8798453365  SOLV      5270            0.0000000000
     15924      5281  TIP3      H2            -19.4366603985       -5.7768457466       10.7941553365  SOLV      5270            0.0000000000
     15925      5282  TIP3      OH2           -13.8215503985       -7.5998457466       -2.8799046635  SOLV      5271            0.0000000000
     15926      5282  TIP3      H1            -13.5825703985       -8.3480357466       -3.4270146635  SOLV      5271            0.0000000000
     15927      5282  TIP3      H2            -14.0904203985       -7.9876757466       -2.0471246635  SOLV      5271            0.0000000000
     15928      5283  TIP3      OH2           -14.8844903985       -8.0294657466       -0.4236446635  SOLV      5272            0.0000000000
     15929      5283  TIP3      H1            -14.7376903985       -8.5494857466        0.3664453365  SOLV      5272            0.0000000000
     15930      5283  TIP3      H2            -14.8873203985       -7.1227057466       -0.1170546635  SOLV      5272            0.0000000000
     15931      5284  TIP3      OH2           -18.4313803985      -10.7771357466        0.0868953365  SOLV      5273            0.0000000000
     15932      5284  TIP3      H1            -19.1174503985      -10.4248857466        0.6538653365  SOLV      5273            0.0000000000
     15933      5284  TIP3      H2            -17.9085903985      -10.0141757466       -0.1596746635  SOLV      5273            0.0000000000
     15934      5285  TIP3      OH2           -10.5998703985      -18.1147557466       10.3657953365  SOLV      5274            0.0000000000
     15935      5285  TIP3      H1             -9.9010803985      -18.0408857466       11.0157653365  SOLV      5274            0.0000000000
     15936      5285  TIP3      H2            -10.9807303985      -18.9792557466       10.5200853365  SOLV      5274            0.0000000000
     15937      5286  TIP3      OH2            -9.8153803985      -18.4625857466        1.4630253365  SOLV      5275            0.0000000000
     15938      5286  TIP3      H1             -9.5955503985      -17.9910457466        0.6595653365  SOLV      5275            0.0000000000
     15939      5286  TIP3      H2             -9.2569803985      -18.0683257466        2.1330853365  SOLV      5275            0.0000000000
     15940      5287  TIP3      OH2           -12.6153903985      -16.7347057466        2.2978653365  SOLV      5276            0.0000000000
     15941      5287  TIP3      H1            -11.8031303985      -16.2303857466        2.3440353365  SOLV      5276            0.0000000000
     15942      5287  TIP3      H2            -12.8600903985      -16.8797357466        3.2118253365  SOLV      5276            0.0000000000
     15943      5288  TIP3      OH2           -12.0797503985      -15.7484357466       11.4825253365  SOLV      5277            0.0000000000
     15944      5288  TIP3      H1            -11.9607203985      -15.1748957466       12.2395653365  SOLV      5277            0.0000000000
     15945      5288  TIP3      H2            -11.4242903985      -16.4364957466       11.5973053365  SOLV      5277            0.0000000000
     15946      5289  TIP3      OH2           -11.7317203985      -19.6534057466        3.2359753365  SOLV      5278            0.0000000000
     15947      5289  TIP3      H1            -12.0783703985      -19.0363457466        3.8804053365  SOLV      5278            0.0000000000
     15948      5289  TIP3      H2            -11.0730303985      -19.1528357466        2.7545253365  SOLV      5278            0.0000000000
     15949      5290  TIP3      OH2           -14.8084603985       -5.2883857466        0.3074653365  SOLV      5279            0.0000000000
     15950      5290  TIP3      H1            -14.6475903985       -4.4886357466       -0.1932746635  SOLV      5279            0.0000000000
     15951      5290  TIP3      H2            -15.0056803985       -4.9817857466        1.1925253365  SOLV      5279            0.0000000000
     15952      5291  TIP3      OH2           -16.0740203985      -18.5904657466       -0.0767746635  SOLV      5280            0.0000000000
     15953      5291  TIP3      H1            -16.1575403985      -17.7021557466        0.2698653365  SOLV      5280            0.0000000000
     15954      5291  TIP3      H2            -15.1839903985      -18.8557957466        0.1549053365  SOLV      5280            0.0000000000
     15955      5292  TIP3      OH2            -5.8751703985      -17.8414057466       12.3174953365  SOLV      5281            0.0000000000
     15956      5292  TIP3      H1             -6.7915903985      -17.5792357466       12.2298653365  SOLV      5281            0.0000000000
     15957      5292  TIP3      H2             -5.5396703985      -17.8445057466       11.4210253365  SOLV      5281            0.0000000000
     15958      5293  TIP3      OH2            -7.2730703985      -14.0913057466        6.4132253365  SOLV      5282            0.0000000000
     15959      5293  TIP3      H1             -8.0706303985      -14.5062857466        6.0847253365  SOLV      5282            0.0000000000
     15960      5293  TIP3      H2             -6.8279603985      -14.7819357466        6.9042753365  SOLV      5282            0.0000000000
     15961      5294  TIP3      OH2           -17.8154903985       -8.1632457466       -1.0163246635  SOLV      5283            0.0000000000
     15962      5294  TIP3      H1            -17.2233403985       -7.4637657466       -0.7400846635  SOLV      5283            0.0000000000
     15963      5294  TIP3      H2            -17.3561903985       -8.5962957466       -1.7358646635  SOLV      5283            0.0000000000
     15964      5295  TIP3      OH2           -19.4995703985      -15.4989457466       -1.9003846635  SOLV      5284            0.0000000000
     15965      5295  TIP3      H1            -19.5443103985      -14.5596357466       -1.7216846635  SOLV      5284            0.0000000000
     15966      5295  TIP3      H2            -20.3872503985      -15.7344557466       -2.1701746635  SOLV      5284            0.0000000000
     15967      5296  TIP3      OH2            -6.1866103985       -4.8350557466        8.0355753365  SOLV      5285            0.0000000000
     15968      5296  TIP3      H1             -6.3421803985       -4.1566157466        7.3785053365  SOLV      5285            0.0000000000
     15969      5296  TIP3      H2             -5.2539703985       -4.7631257466        8.2386353365  SOLV      5285            0.0000000000
     15970      5297  TIP3      OH2           -18.6913703985      -20.7172857466        6.7727153365  SOLV      5286            0.0000000000
     15971      5297  TIP3      H1            -18.9203903985      -20.6580357466        5.8452153365  SOLV      5286            0.0000000000
     15972      5297  TIP3      H2            -19.1340303985      -21.5087357466        7.0791253365  SOLV      5286            0.0000000000
     15973      5298  TIP3      OH2           -19.7610403985       -6.7765757466        2.9332953365  SOLV      5287            0.0000000000
     15974      5298  TIP3      H1            -20.5931803985       -6.3043057466        2.9604353365  SOLV      5287            0.0000000000
     15975      5298  TIP3      H2            -19.2152103985       -6.2668157466        2.3346053365  SOLV      5287            0.0000000000
     15976      5299  TIP3      OH2           -20.4726703985       -4.1642057466       14.2630953365  SOLV      5288            0.0000000000
     15977      5299  TIP3      H1            -19.9324503985       -4.3808057466       15.0230153365  SOLV      5288            0.0000000000
     15978      5299  TIP3      H2            -20.9538703985       -4.9696057466       14.0733453365  SOLV      5288            0.0000000000
     15979      5300  TIP3      OH2           -15.8753303985       -5.2447657466       15.8835153365  SOLV      5289            0.0000000000
     15980      5300  TIP3      H1            -15.1076103985       -5.7036857466       16.2244353365  SOLV      5289            0.0000000000
     15981      5300  TIP3      H2            -15.8967103985       -5.4707857466       14.9536353365  SOLV      5289            0.0000000000
     15982      5301  TIP3      OH2            -9.2984603985       -6.8646557466       14.6126653365  SOLV      5290            0.0000000000
     15983      5301  TIP3      H1             -9.6495103985       -7.7213557466       14.8557053365  SOLV      5290            0.0000000000
     15984      5301  TIP3      H2             -8.5721403985       -6.7219857466       15.2195653365  SOLV      5290            0.0000000000
     15985      5302  TIP3      OH2            -7.1790803985       -5.9197157466       -2.5075046635  SOLV      5291            0.0000000000
     15986      5302  TIP3      H1             -6.8960403985       -6.7141957466       -2.0548146635  SOLV      5291            0.0000000000
     15987      5302  TIP3      H2             -6.4392903985       -5.6866157466       -3.0683946635  SOLV      5291            0.0000000000
     15988      5303  TIP3      OH2           -20.5657203985      -10.3537957466       15.2175253365  SOLV      5292            0.0000000000
     15989      5303  TIP3      H1            -20.4216703985      -11.2557257466       14.9311953365  SOLV      5292            0.0000000000
     15990      5303  TIP3      H2            -21.3379803985      -10.0675857466       14.7297553365  SOLV      5292            0.0000000000
     15991      5304  TIP3      OH2           -16.2243503985      -10.0102257466       -2.6500146635  SOLV      5293            0.0000000000
     15992      5304  TIP3      H1            -16.1599403985      -10.8042657466       -2.1193746635  SOLV      5293            0.0000000000
     15993      5304  TIP3      H2            -15.5714303985      -10.1289457466       -3.3398146635  SOLV      5293            0.0000000000
     15994      5305  TIP3      OH2           -13.9101103985      -10.3839857466       14.6501653365  SOLV      5294            0.0000000000
     15995      5305  TIP3      H1            -14.2387303985      -10.1131757466       13.7929053365  SOLV      5294            0.0000000000
     15996      5305  TIP3      H2            -13.7582903985      -11.3250057466       14.5626653365  SOLV      5294            0.0000000000
     15997      5306  TIP3      OH2           -10.8720103985       -8.9630557466       -2.9142146635  SOLV      5295            0.0000000000
     15998      5306  TIP3      H1            -11.1406003985       -8.7828457466       -2.0133246635  SOLV      5295            0.0000000000
     15999      5306  TIP3      H2            -11.0784503985       -9.8884357466       -3.0456346635  SOLV      5295            0.0000000000
     16000      5307  TIP3      OH2            -8.1755903985      -10.4682557466       12.0333953365  SOLV      5296            0.0000000000
     16001      5307  TIP3      H1             -7.4301103985       -9.8798857466       11.9137953365  SOLV      5296            0.0000000000
     16002      5307  TIP3      H2             -8.9329103985       -9.8862857466       12.0967053365  SOLV      5296            0.0000000000
     16003      5308  TIP3      OH2           -19.7330703985      -13.1534657466       14.6374553365  SOLV      5297            0.0000000000
     16004      5308  TIP3      H1            -19.3249503985      -14.0108057466       14.5165153365  SOLV      5297            0.0000000000
     16005      5308  TIP3      H2            -19.9933103985      -13.1393357466       15.5584853365  SOLV      5297            0.0000000000
     16006      5309  TIP3      OH2           -15.0749703985      -12.0376057466       -0.3442146635  SOLV      5298            0.0000000000
     16007      5309  TIP3      H1            -15.5347703985      -12.5217757466        0.3416353365  SOLV      5298            0.0000000000
     16008      5309  TIP3      H2            -14.8201003985      -12.7060657466       -0.9801646635  SOLV      5298            0.0000000000
     16009      5310  TIP3      OH2           -15.7860403985      -14.1448957466       12.0117453365  SOLV      5299            0.0000000000
     16010      5310  TIP3      H1            -16.4044303985      -13.4702357466       12.2922153365  SOLV      5299            0.0000000000
     16011      5310  TIP3      H2            -15.4419203985      -13.8235057466       11.1783653365  SOLV      5299            0.0000000000
     16012      5311  TIP3      OH2           -14.0039303985      -13.7944257466       -2.0818946635  SOLV      5300            0.0000000000
     16013      5311  TIP3      H1            -14.1844303985      -13.9493057466       -3.0090646635  SOLV      5300            0.0000000000
     16014      5311  TIP3      H2            -13.0538803985      -13.6865557466       -2.0371046635  SOLV      5300            0.0000000000
     16015      5312  TIP3      OH2           -10.7662203985      -11.6733657466       15.2892253365  SOLV      5301            0.0000000000
     16016      5312  TIP3      H1             -9.8131003985      -11.5894557466       15.2618253365  SOLV      5301            0.0000000000
     16017      5312  TIP3      H2            -10.9267603985      -12.3851857466       15.9087153365  SOLV      5301            0.0000000000
     16018      5313  TIP3      OH2            -4.6141003985      -11.4400057466       -2.6360846635  SOLV      5302            0.0000000000
     16019      5313  TIP3      H1             -4.8876203985      -11.8644557466       -3.4492546635  SOLV      5302            0.0000000000
     16020      5313  TIP3      H2             -4.5746903985      -10.5085557466       -2.8530446635  SOLV      5302            0.0000000000
     16021      5314  TIP3      OH2           -15.4466703985      -16.7898157466       13.0940553365  SOLV      5303            0.0000000000
     16022      5314  TIP3      H1            -15.2965803985      -17.5186857466       12.4920253365  SOLV      5303            0.0000000000
     16023      5314  TIP3      H2            -15.4444303985      -16.0126457466       12.5352753365  SOLV      5303            0.0000000000
     16024      5315  TIP3      OH2           -15.0341003985      -18.4202357466       10.5867953365  SOLV      5304            0.0000000000
     16025      5315  TIP3      H1            -14.4983503985      -17.9685657466        9.9347253365  SOLV      5304            0.0000000000
     16026      5315  TIP3      H2            -15.8861403985      -18.5282557466       10.1642053365  SOLV      5304            0.0000000000
     16027      5316  TIP3      OH2           -13.4522603985      -12.9806157466       10.8263153365  SOLV      5305            0.0000000000
     16028      5316  TIP3      H1            -12.7017803985      -13.1368657466       10.2530953365  SOLV      5305            0.0000000000
     16029      5316  TIP3      H2            -13.7914303985      -12.1289557466       10.5508653365  SOLV      5305            0.0000000000
     16030      5317  TIP3      OH2            -9.0366403985      -15.1654357466       15.8548453365  SOLV      5306            0.0000000000
     16031      5317  TIP3      H1             -8.8445103985      -16.0964957466       15.7432953365  SOLV      5306            0.0000000000
     16032      5317  TIP3      H2             -8.1790103985      -14.7404857466       15.8443853365  SOLV      5306            0.0000000000
     16033      5318  TIP3      OH2            -7.7199203985      -12.3769157466       13.9321153365  SOLV      5307            0.0000000000
     16034      5318  TIP3      H1             -8.0014203985      -11.6674557466       13.3544953365  SOLV      5307            0.0000000000
     16035      5318  TIP3      H2             -6.7774903985      -12.4496157466       13.7812353365  SOLV      5307            0.0000000000
     16036      5319  TIP3      OH2           -16.9680403985      -15.5914657466       15.0056153365  SOLV      5308            0.0000000000
     16037      5319  TIP3      H1            -17.7351403985      -16.1239857466       14.7953753365  SOLV      5308            0.0000000000
     16038      5319  TIP3      H2            -16.2891403985      -15.9014257466       14.4062453365  SOLV      5308            0.0000000000
     16039      5320  TIP3      OH2           -14.2285503985      -20.9636657466       11.0181553365  SOLV      5309            0.0000000000
     16040      5320  TIP3      H1            -14.3265903985      -20.0173457466       10.9127753365  SOLV      5309            0.0000000000
     16041      5320  TIP3      H2            -14.9709303985      -21.3362857466       10.5425053365  SOLV      5309            0.0000000000
     16042      5321  TIP3      OH2           -12.9645003985      -16.6421257466       14.5819953365  SOLV      5310            0.0000000000
     16043      5321  TIP3      H1            -13.1999603985      -16.8614557466       15.4834853365  SOLV      5310            0.0000000000
     16044      5321  TIP3      H2            -13.7478103985      -16.8490057466       14.0722453365  SOLV      5310            0.0000000000
     16045      5322  TIP3      OH2           -10.2488403985      -17.5147757466       13.6573453365  SOLV      5311            0.0000000000
     16046      5322  TIP3      H1            -11.1963003985      -17.4828057466       13.7896753365  SOLV      5311            0.0000000000
     16047      5322  TIP3      H2             -9.9361703985      -18.1400657466       14.3111653365  SOLV      5311            0.0000000000
     16048      5323  TIP3      OH2            -8.6146903985      -18.8806657466       15.6625353365  SOLV      5312            0.0000000000
     16049      5323  TIP3      H1             -8.7115103985      -19.8329357466       15.6567253365  SOLV      5312            0.0000000000
     16050      5323  TIP3      H2             -8.9363803985      -18.6119857466       16.5230853365  SOLV      5312            0.0000000000
     16051      5324  TIP3      OH2           -18.7877603985      -17.6710857466       14.7100853365  SOLV      5313            0.0000000000
     16052      5324  TIP3      H1            -18.5760203985      -18.3774757466       14.0998353365  SOLV      5313            0.0000000000
     16053      5324  TIP3      H2            -18.8990103985      -18.1084857466       15.5542053365  SOLV      5313            0.0000000000
     16054      5325  TIP3      OH2           -14.0067403985      -21.6699257466       13.6894353365  SOLV      5314            0.0000000000
     16055      5325  TIP3      H1            -13.2949003985      -22.3097057466       13.6753453365  SOLV      5314            0.0000000000
     16056      5325  TIP3      H2            -14.1077003985      -21.4030957466       12.7757453365  SOLV      5314            0.0000000000
     16057      5326  TIP3      OH2           -13.6529903985      -19.9870857466       15.7430653365  SOLV      5315            0.0000000000
     16058      5326  TIP3      H1            -13.7847703985      -20.4627057466       14.9229153365  SOLV      5315            0.0000000000
     16059      5326  TIP3      H2            -14.2522503985      -19.2427257466       15.6877753365  SOLV      5315            0.0000000000
     16060      5327  TIP3      OH2           -20.5382703985       -8.4676757466       -1.5977246635  SOLV      5316            0.0000000000
     16061      5327  TIP3      H1            -19.6243503985       -8.3887857466       -1.3243346635  SOLV      5316            0.0000000000
     16062      5327  TIP3      H2            -20.5309603985       -9.1547157466       -2.2641646635  SOLV      5316            0.0000000000
     16063      5328  TIP3      OH2           -21.8892103985       -3.0748257466        3.4796653365  SOLV      5317            0.0000000000
     16064      5328  TIP3      H1            -22.5365003985       -3.5366557466        2.9467853365  SOLV      5317            0.0000000000
     16065      5328  TIP3      H2            -21.5347503985       -3.7464957466        4.0622853365  SOLV      5317            0.0000000000
     16066      5329  TIP3      OH2           -21.0192903985       -4.9941257466        5.2842853365  SOLV      5318            0.0000000000
     16067      5329  TIP3      H1            -21.3536103985       -5.8743957466        5.4563053365  SOLV      5318            0.0000000000
     16068      5329  TIP3      H2            -20.7970503985       -4.6486257466        6.1488453365  SOLV      5318            0.0000000000
     16069      5330  TIP3      OH2            -3.4708103985       -4.1844857466        8.2647653365  SOLV      5319            0.0000000000
     16070      5330  TIP3      H1             -3.4921403985       -3.9996457466        9.2037053365  SOLV      5319            0.0000000000
     16071      5330  TIP3      H2             -2.7801903985       -3.6160857466        7.9239053365  SOLV      5319            0.0000000000
     16072      5331  TIP3      OH2            -3.9075203985       -4.6173757466       11.1866753365  SOLV      5320            0.0000000000
     16073      5331  TIP3      H1             -4.3946503985       -5.3529657466       10.8154153365  SOLV      5320            0.0000000000
     16074      5331  TIP3      H2             -3.3582503985       -5.0109857466       11.8646153365  SOLV      5320            0.0000000000
     16075      5332  TIP3      OH2            -5.4567903985       -8.8275657466       15.8247053365  SOLV      5321            0.0000000000
     16076      5332  TIP3      H1             -6.3226803985       -8.9325957466       16.2189353365  SOLV      5321            0.0000000000
     16077      5332  TIP3      H2             -5.0802003985       -8.0692357466       16.2711753365  SOLV      5321            0.0000000000
     16078      5333  TIP3      OH2            -4.1558203985      -10.5711957466        1.3389553365  SOLV      5322            0.0000000000
     16079      5333  TIP3      H1             -3.3056803985      -10.1501057466        1.4661153365  SOLV      5322            0.0000000000
     16080      5333  TIP3      H2             -4.1503103985      -11.3111857466        1.9460953365  SOLV      5322            0.0000000000
     16081      5334  TIP3      OH2            -3.7612603985      -12.5174557466        3.1625253365  SOLV      5323            0.0000000000
     16082      5334  TIP3      H1             -4.4878003985      -12.9971957466        3.5602853365  SOLV      5323            0.0000000000
     16083      5334  TIP3      H2             -3.1799303985      -12.3119857466        3.8946853365  SOLV      5323            0.0000000000
     16084      5335  TIP3      OH2            -5.5159103985       -6.8549557466       10.4171253365  SOLV      5324            0.0000000000
     16085      5335  TIP3      H1             -6.1633803985       -6.5298057466       11.0426453365  SOLV      5324            0.0000000000
     16086      5335  TIP3      H2             -6.0335103985       -7.2951857466        9.7429553365  SOLV      5324            0.0000000000
     16087      5336  TIP3      OH2            -3.4929503985      -12.6166057466       -0.4463446635  SOLV      5325            0.0000000000
     16088      5336  TIP3      H1             -4.0148403985      -12.2601957466       -1.1652546635  SOLV      5325            0.0000000000
     16089      5336  TIP3      H2             -3.5260303985      -11.9418257466        0.2317453365  SOLV      5325            0.0000000000
     16090      5337  TIP3      OH2            -5.1440503985      -15.3770457466       -1.8956346635  SOLV      5326            0.0000000000
     16091      5337  TIP3      H1             -5.0476103985      -14.7103457466       -2.5756646635  SOLV      5326            0.0000000000
     16092      5337  TIP3      H2             -5.2840903985      -16.1924157466       -2.3770846635  SOLV      5326            0.0000000000
     16093      5338  TIP3      OH2            -5.9745803985      -13.9968057466        3.7253953365  SOLV      5327            0.0000000000
     16094      5338  TIP3      H1             -6.1247003985      -14.9419457466        3.7051753365  SOLV      5327            0.0000000000
     16095      5338  TIP3      H2             -6.3281303985      -13.7156657466        4.5693053365  SOLV      5327            0.0000000000
     16096      5339  TIP3      OH2           -20.9393403985      -11.9185857466        7.7357753365  SOLV      5328            0.0000000000
     16097      5339  TIP3      H1            -20.7550503985      -12.0004157466        6.8000653365  SOLV      5328            0.0000000000
     16098      5339  TIP3      H2            -20.0900503985      -12.0428857466        8.1594153365  SOLV      5328            0.0000000000
     16099      5340  TIP3      OH2            -5.1182903985      -12.0264757466       13.3642253365  SOLV      5329            0.0000000000
     16100      5340  TIP3      H1             -4.5355603985      -12.7612457466       13.5559453365  SOLV      5329            0.0000000000
     16101      5340  TIP3      H2             -4.5543603985      -11.2544457466       13.4108053365  SOLV      5329            0.0000000000
     16102      5341  TIP3      OH2            -3.6215803985      -14.1238957466       14.0487653365  SOLV      5330            0.0000000000
     16103      5341  TIP3      H1             -4.4849103985      -14.5026857466       13.8832353365  SOLV      5330            0.0000000000
     16104      5341  TIP3      H2             -3.0172103985      -14.8624157466       13.9743453365  SOLV      5330            0.0000000000
     16105      5342  TIP3      OH2            -5.8966703985      -17.9690657466       -2.7780846635  SOLV      5331            0.0000000000
     16106      5342  TIP3      H1             -5.2860903985      -18.3403857466       -2.1412646635  SOLV      5331            0.0000000000
     16107      5342  TIP3      H2             -6.7335203985      -18.3903757466       -2.5820846635  SOLV      5331            0.0000000000
     16108      5343  TIP3      OH2            -6.2641003985      -16.4142257466        2.1879053365  SOLV      5332            0.0000000000
     16109      5343  TIP3      H1             -5.9843903985      -17.3211857466        2.3120753365  SOLV      5332            0.0000000000
     16110      5343  TIP3      H2             -5.5049303985      -15.9800757466        1.7988253365  SOLV      5332            0.0000000000
     16111      5344  TIP3      OH2            -5.6522703985      -15.8324857466        7.6237953365  SOLV      5333            0.0000000000
     16112      5344  TIP3      H1             -4.7194703985      -15.6204957466        7.5893953365  SOLV      5333            0.0000000000
     16113      5344  TIP3      H2             -5.8875203985      -15.7312757466        8.5460953365  SOLV      5333            0.0000000000
     16114      5345  TIP3      OH2            -5.6230803985      -15.0959557466       10.3997353365  SOLV      5334            0.0000000000
     16115      5345  TIP3      H1             -6.4659503985      -14.8279157466       10.7657153365  SOLV      5334            0.0000000000
     16116      5345  TIP3      H2             -5.1806503985      -14.2737657466       10.1888453365  SOLV      5334            0.0000000000
     16117      5346  TIP3      OH2           -21.3418603985      -16.6480857466       13.8766553365  SOLV      5335            0.0000000000
     16118      5346  TIP3      H1            -20.4223703985      -16.7702557466       14.1129653365  SOLV      5335            0.0000000000
     16119      5346  TIP3      H2            -21.7914103985      -17.3981157466       14.2660053365  SOLV      5335            0.0000000000
     16120      5347  TIP3      OH2            -3.3399203985      -21.1159357466       15.7532353365  SOLV      5336            0.0000000000
     16121      5347  TIP3      H1             -2.9902203985      -21.7695857466       15.1477053365  SOLV      5336            0.0000000000
     16122      5347  TIP3      H2             -3.1929703985      -20.2785257466       15.3134953365  SOLV      5336            0.0000000000
     16123      5348  TIP3      OH2            -5.6506203985      -19.1512957466        2.2361053365  SOLV      5337            0.0000000000
     16124      5348  TIP3      H1             -5.4681203985      -19.6001457466        3.0616053365  SOLV      5337            0.0000000000
     16125      5348  TIP3      H2             -6.2503303985      -19.7358557466        1.7725653365  SOLV      5337            0.0000000000
     16126      5349  TIP3      OH2           -20.1206103985      -18.3359257466        6.7679453365  SOLV      5338            0.0000000000
     16127      5349  TIP3      H1            -19.6754503985      -19.1276757466        7.0699153365  SOLV      5338            0.0000000000
     16128      5349  TIP3      H2            -19.6543103985      -17.6194057466        7.1985053365  SOLV      5338            0.0000000000
     16129      5350  TIP3      OH2           -21.8165803985      -15.3366257466        7.8369653365  SOLV      5339            0.0000000000
     16130      5350  TIP3      H1            -21.3246003985      -15.5575757466        7.0461653365  SOLV      5339            0.0000000000
     16131      5350  TIP3      H2            -21.4544903985      -14.4962857466        8.1179153365  SOLV      5339            0.0000000000
     16132      5351  TIP3      OH2            -3.8202003985      -19.0064757466       14.1023653365  SOLV      5340            0.0000000000
     16133      5351  TIP3      H1             -4.7376303985      -18.7357657466       14.0667153365  SOLV      5340            0.0000000000
     16134      5351  TIP3      H2             -3.6972603985      -19.5416357466       13.3183353365  SOLV      5340            0.0000000000
     16135      5352  TIP3      OH2            -3.7840003985      -19.0834857466       -1.2358646635  SOLV      5341            0.0000000000
     16136      5352  TIP3      H1             -3.3717403985      -19.8049157466       -1.7110646635  SOLV      5341            0.0000000000
     16137      5352  TIP3      H2             -3.1023503985      -18.4140257466       -1.1774346635  SOLV      5341            0.0000000000
     16138      5353  TIP3      OH2           -21.5029303985      -19.0787157466        1.8912053365  SOLV      5342            0.0000000000
     16139      5353  TIP3      H1            -22.4280903985      -18.8700557466        1.7617553365  SOLV      5342            0.0000000000
     16140      5353  TIP3      H2            -21.0489403985      -18.5946357466        1.2014353365  SOLV      5342            0.0000000000
     16141      5354  TIP3      OH2            -6.7322103985       -4.0945457466        3.8369453365  SOLV      5343            0.0000000000
     16142      5354  TIP3      H1             -6.0799203985       -4.4423357466        3.2288553365  SOLV      5343            0.0000000000
     16143      5354  TIP3      H2             -6.2218303985       -3.6062257466        4.4829153365  SOLV      5343            0.0000000000
     16144      5355  TIP3      OH2           -21.5393903985      -20.3408157466       10.2354553365  SOLV      5344            0.0000000000
     16145      5355  TIP3      H1            -22.2043403985      -20.5867857466       10.8785453365  SOLV      5344            0.0000000000
     16146      5355  TIP3      H2            -21.9822603985      -19.7187757466        9.6582553365  SOLV      5344            0.0000000000
     16147      5356  TIP3      OH2           -19.3474603985       -7.1654057466       14.3800353365  SOLV      5345            0.0000000000
     16148      5356  TIP3      H1            -20.1682103985       -6.9907557466       13.9195053365  SOLV      5345            0.0000000000
     16149      5356  TIP3      H2            -19.5996803985       -7.2389357466       15.3004753365  SOLV      5345            0.0000000000
     16150      5357  TIP3      OH2           -16.3931703985       -6.1912857466       10.6384353365  SOLV      5346            0.0000000000
     16151      5357  TIP3      H1            -16.8180603985       -5.3814357466       10.3558953365  SOLV      5346            0.0000000000
     16152      5357  TIP3      H2            -15.4888903985       -6.1058757466       10.3364153365  SOLV      5346            0.0000000000
     16153      5358  TIP3      OH2           -12.0820303985       -4.7922857466       13.5978053365  SOLV      5347            0.0000000000
     16154      5358  TIP3      H1            -11.8972803985       -5.1256757466       14.4758353365  SOLV      5347            0.0000000000
     16155      5358  TIP3      H2            -11.2355803985       -4.4824257466       13.2757253365  SOLV      5347            0.0000000000
     16156      5359  TIP3      OH2            -9.7369903985       -3.5063957466       12.8419453365  SOLV      5348            0.0000000000
     16157      5359  TIP3      H1             -9.0601003985       -4.1391657466       12.6018653365  SOLV      5348            0.0000000000
     16158      5359  TIP3      H2             -9.4151103985       -3.1053457466       13.6492753365  SOLV      5348            0.0000000000
     16159      5360  TIP3      OH2            -4.8196103985      -20.9168457466       11.9214453365  SOLV      5349            0.0000000000
     16160      5360  TIP3      H1             -5.6322603985      -20.5918157466       11.5339153365  SOLV      5349            0.0000000000
     16161      5360  TIP3      H2             -4.5867603985      -21.6769957466       11.3883553365  SOLV      5349            0.0000000000
     16162      5361  TIP3      OH2           -18.9915003985       -2.9348957466       10.6859653365  SOLV      5350            0.0000000000
     16163      5361  TIP3      H1            -19.7118603985       -2.4947957466       10.2347353365  SOLV      5350            0.0000000000
     16164      5361  TIP3      H2            -19.3571003985       -3.1854257466       11.5343653365  SOLV      5350            0.0000000000
     16165      5362  TIP3      OH2           -16.5242403985       -3.3345057466        9.7156853365  SOLV      5351            0.0000000000
     16166      5362  TIP3      H1            -17.3890203985       -3.2626557466       10.1196953365  SOLV      5351            0.0000000000
     16167      5362  TIP3      H2            -16.5793403985       -2.7877757466        8.9319353365  SOLV      5351            0.0000000000
     16168      5363  TIP3      OH2           -11.8136803985       -3.4466157466        8.8912853365  SOLV      5352            0.0000000000
     16169      5363  TIP3      H1            -12.2702803985       -2.9176457466        8.2371253365  SOLV      5352            0.0000000000
     16170      5363  TIP3      H2            -11.6508803985       -2.8434757466        9.6165153365  SOLV      5352            0.0000000000
     16171      5364  TIP3      OH2            -9.4860503985       -4.5686557466        9.8363153365  SOLV      5353            0.0000000000
     16172      5364  TIP3      H1            -10.3906803985       -4.4036357466        9.5705253365  SOLV      5353            0.0000000000
     16173      5364  TIP3      H2             -9.0571903985       -3.7154357466        9.7706553365  SOLV      5353            0.0000000000
     16174      5365  TIP3      OH2            -6.8818603985       -2.9987457466       10.1310953365  SOLV      5354            0.0000000000
     16175      5365  TIP3      H1             -7.0636603985       -2.0828557466        9.9205853365  SOLV      5354            0.0000000000
     16176      5365  TIP3      H2             -6.7050803985       -3.4090357466        9.2845553365  SOLV      5354            0.0000000000
     16177      5366  TIP3      OH2           -19.5766903985       -4.3116457466        7.5961453365  SOLV      5355            0.0000000000
     16178      5366  TIP3      H1            -19.5950903985       -4.7371357466        8.4533753365  SOLV      5355            0.0000000000
     16179      5366  TIP3      H2            -18.7719003985       -4.6301457466        7.1873653365  SOLV      5355            0.0000000000
     16180      5367  TIP3      OH2           -17.4353803985       -5.6017757466        6.2511353365  SOLV      5356            0.0000000000
     16181      5367  TIP3      H1            -17.6543103985       -6.5180357466        6.4207353365  SOLV      5356            0.0000000000
     16182      5367  TIP3      H2            -16.6111603985       -5.4617357466        6.7172753365  SOLV      5356            0.0000000000
     16183      5368  TIP3      OH2           -14.8981303985       -5.1318457466        7.0999353365  SOLV      5357            0.0000000000
     16184      5368  TIP3      H1            -14.6855603985       -6.0199457466        6.8130253365  SOLV      5357            0.0000000000
     16185      5368  TIP3      H2            -14.8336203985       -5.1660757466        8.0543353365  SOLV      5357            0.0000000000
     16186      5369  TIP3      OH2           -11.3897603985      -19.4677857466        6.2442653365  SOLV      5358            0.0000000000
     16187      5369  TIP3      H1            -12.0640803985      -20.0972257466        6.4998453365  SOLV      5358            0.0000000000
     16188      5369  TIP3      H2            -10.8258403985      -19.9518957466        5.6410553365  SOLV      5358            0.0000000000
     16189      5370  TIP3      OH2            -6.2470403985      -21.3603857466        6.3569753365  SOLV      5359            0.0000000000
     16190      5370  TIP3      H1             -5.6432803985      -20.8128457466        5.8550753365  SOLV      5359            0.0000000000
     16191      5370  TIP3      H2             -7.1168403985      -21.0413457466        6.1163853365  SOLV      5359            0.0000000000
     16192      5371  TIP3      OH2            -4.5200003985      -20.2215157466        4.6900653365  SOLV      5360            0.0000000000
     16193      5371  TIP3      H1             -3.9082503985      -20.7359457466        4.1634253365  SOLV      5360            0.0000000000
     16194      5371  TIP3      H2             -4.1376603985      -19.3443057466        4.7135053365  SOLV      5360            0.0000000000
     16195      5372  TIP3      OH2           -19.0630103985      -20.8337557466        4.0662553365  SOLV      5361            0.0000000000
     16196      5372  TIP3      H1            -19.8400303985      -21.0682657466        3.5588453365  SOLV      5361            0.0000000000
     16197      5372  TIP3      H2            -18.5326503985      -21.6305457466        4.0750553365  SOLV      5361            0.0000000000
     16198      5373  TIP3      OH2           -20.2266703985      -21.0359457466       -0.1301346635  SOLV      5362            0.0000000000
     16199      5373  TIP3      H1            -19.7876003985      -20.4248957466       -0.7217846635  SOLV      5362            0.0000000000
     16200      5373  TIP3      H2            -20.8604303985      -20.4975357466        0.3438653365  SOLV      5362            0.0000000000
     16201      5374  TIP3      OH2           -14.4837503985      -20.9070457466        3.8795653365  SOLV      5363            0.0000000000
     16202      5374  TIP3      H1            -13.6094103985      -20.5186157466        3.8499953365  SOLV      5363            0.0000000000
     16203      5374  TIP3      H2            -14.6196703985      -21.1222657466        4.8022853365  SOLV      5363            0.0000000000
     16204      5375  TIP3      OH2            -8.9269103985      -20.8770657466        5.5287353365  SOLV      5364            0.0000000000
     16205      5375  TIP3      H1             -8.8507503985      -20.7819057466        4.5793353365  SOLV      5364            0.0000000000
     16206      5375  TIP3      H2             -9.2019903985      -21.7847757466        5.6576453365  SOLV      5364            0.0000000000
     16207      5376  TIP3      OH2            -7.5736503985      -20.8512857466        1.2212353365  SOLV      5365            0.0000000000
     16208      5376  TIP3      H1             -8.2765403985      -20.2363657466        1.0113753365  SOLV      5365            0.0000000000
     16209      5376  TIP3      H2             -8.0185103985      -21.6886157466        1.3523253365  SOLV      5365            0.0000000000
     16210      5377  TIP3      OH2           -20.3257203985       -5.0877257466        0.7673753365  SOLV      5366            0.0000000000
     16211      5377  TIP3      H1            -21.0107303985       -5.1258357466        0.0998853365  SOLV      5366            0.0000000000
     16212      5377  TIP3      H2            -20.3220003985       -4.1749657466        1.0555853365  SOLV      5366            0.0000000000
     16213      5378  TIP3      OH2           -18.3657603985      -19.1197957466       -1.6877246635  SOLV      5367            0.0000000000
     16214      5378  TIP3      H1            -17.8744203985      -19.7495557466       -2.2151746635  SOLV      5367            0.0000000000
     16215      5378  TIP3      H2            -17.7421303985      -18.8238557466       -1.0246046635  SOLV      5367            0.0000000000
     16216      5379  TIP3      OH2           -13.3397503985      -18.8266457466        0.7693253365  SOLV      5368            0.0000000000
     16217      5379  TIP3      H1            -13.1616203985      -19.4733257466        1.4521853365  SOLV      5368            0.0000000000
     16218      5379  TIP3      H2            -13.3931303985      -17.9928757466        1.2364353365  SOLV      5368            0.0000000000
     16219      5380  TIP3      OH2            -4.7524103985       -4.3152057466        1.8441053365  SOLV      5369            0.0000000000
     16220      5380  TIP3      H1             -4.9467003985       -5.0629957466        1.2790653365  SOLV      5369            0.0000000000
     16221      5380  TIP3      H2             -4.7914003985       -3.5571957466        1.2608953365  SOLV      5369            0.0000000000
     16222      5381  TIP3      OH2           -19.1052103985      -20.3195657466       13.5838753365  SOLV      5370            0.0000000000
     16223      5381  TIP3      H1            -19.4713903985      -21.0853057466       14.0263453365  SOLV      5370            0.0000000000
     16224      5381  TIP3      H2            -18.1923603985      -20.2905457466       13.8703853365  SOLV      5370            0.0000000000
     16225      5382  TIP3      OH2           -17.1321303985      -20.9691257466       15.1195853365  SOLV      5371            0.0000000000
     16226      5382  TIP3      H1            -16.2337703985      -21.2431057466       14.9349253365  SOLV      5371            0.0000000000
     16227      5382  TIP3      H2            -17.5188203985      -21.7115257466       15.5838453365  SOLV      5371            0.0000000000
     16228      5383  TIP3      OH2           -18.5076003985       -4.1676457466       -2.2074146635  SOLV      5372            0.0000000000
     16229      5383  TIP3      H1            -18.7751403985       -3.8813557466       -1.3341046635  SOLV      5372            0.0000000000
     16230      5383  TIP3      H2            -17.7363403985       -4.7137257466       -2.0551646635  SOLV      5372            0.0000000000
     16231      5384  TIP3      OH2            -8.7109003985      -21.6365957466       15.3018653365  SOLV      5373            0.0000000000
     16232      5384  TIP3      H1             -8.6341803985      -22.0625257466       16.1556353365  SOLV      5373            0.0000000000
     16233      5384  TIP3      H2             -7.8172403985      -21.6231257466       14.9592153365  SOLV      5373            0.0000000000
     16234      5385  TIP3      OH2            -5.5347903985       -5.5639657466       13.9942853365  SOLV      5374            0.0000000000
     16235      5385  TIP3      H1             -6.3166003985       -5.7501657466       13.4743453365  SOLV      5374            0.0000000000
     16236      5385  TIP3      H2             -5.6068003985       -4.6345357466       14.2115353365  SOLV      5374            0.0000000000
     16237      5386  TIP3      OH2             8.8712496015      -11.6775257466        4.0250053365  SOLV      5375            0.0000000000
     16238      5386  TIP3      H1              8.9603596015      -10.7337057466        3.8927153365  SOLV      5375            0.0000000000
     16239      5386  TIP3      H2              8.2330096015      -11.9528857466        3.3669453365  SOLV      5375            0.0000000000
     16240      5387  TIP3      OH2             7.8043796015      -12.4224557466        7.4438253365  SOLV      5376            0.0000000000
     16241      5387  TIP3      H1              7.7661296015      -13.0688257466        8.1487853365  SOLV      5376            0.0000000000
     16242      5387  TIP3      H2              7.4820296015      -12.8890157466        6.6726953365  SOLV      5376            0.0000000000
     16243      5388  TIP3      OH2             0.1728796015      -12.8082457466        9.0368153365  SOLV      5377            0.0000000000
     16244      5388  TIP3      H1              0.2140896015      -13.4339157466        9.7600553365  SOLV      5377            0.0000000000
     16245      5388  TIP3      H2              0.8756496015      -12.1843857466        9.2188553365  SOLV      5377            0.0000000000
     16246      5389  TIP3      OH2            11.5103996015       -9.4834157466        5.7453353365  SOLV      5378            0.0000000000
     16247      5389  TIP3      H1             11.0696696015      -10.2038157466        6.1958953365  SOLV      5378            0.0000000000
     16248      5389  TIP3      H2             11.4973696015       -8.7626957466        6.3751053365  SOLV      5378            0.0000000000
     16249      5390  TIP3      OH2             1.0961896015       -8.3583557466        7.5717253365  SOLV      5379            0.0000000000
     16250      5390  TIP3      H1              0.7267096015       -9.1603057466        7.2021553365  SOLV      5379            0.0000000000
     16251      5390  TIP3      H2              2.0372996015       -8.5268657466        7.6180653365  SOLV      5379            0.0000000000
     16252      5391  TIP3      OH2            -2.2937603985      -14.6980957466        2.9646053365  SOLV      5380            0.0000000000
     16253      5391  TIP3      H1             -2.7414203985      -13.8522257466        2.9462553365  SOLV      5380            0.0000000000
     16254      5391  TIP3      H2             -2.8546403985      -15.2776757466        2.4491153365  SOLV      5380            0.0000000000
     16255      5392  TIP3      OH2            -1.5831503985      -12.5361357466        5.0904053365  SOLV      5381            0.0000000000
     16256      5392  TIP3      H1             -1.3698003985      -13.3059757466        5.6177053365  SOLV      5381            0.0000000000
     16257      5392  TIP3      H2             -0.8453903985      -12.4464657466        4.4871653365  SOLV      5381            0.0000000000
     16258      5393  TIP3      OH2             8.6219496015       -4.3792457466        5.9573753365  SOLV      5382            0.0000000000
     16259      5393  TIP3      H1              9.2415896015       -5.0557757466        5.6842953365  SOLV      5382            0.0000000000
     16260      5393  TIP3      H2              8.4136896015       -4.5971657466        6.8658653365  SOLV      5382            0.0000000000
     16261      5394  TIP3      OH2             6.1938196015       -9.9903157466        7.8499253365  SOLV      5383            0.0000000000
     16262      5394  TIP3      H1              6.4976096015      -10.6761757466        7.2553353365  SOLV      5383            0.0000000000
     16263      5394  TIP3      H2              6.9152196015       -9.8714457466        8.4677253365  SOLV      5383            0.0000000000
     16264      5395  TIP3      OH2            14.8567996015      -18.3887857466        8.7105453365  SOLV      5384            0.0000000000
     16265      5395  TIP3      H1             14.9060196015      -17.7786657466        9.4464553365  SOLV      5384            0.0000000000
     16266      5395  TIP3      H2             15.2823096015      -17.9276957466        7.9876553365  SOLV      5384            0.0000000000
     16267      5396  TIP3      OH2             9.3345196015      -15.5960757466        8.1774053365  SOLV      5385            0.0000000000
     16268      5396  TIP3      H1              9.4771096015      -16.5423757466        8.1975653365  SOLV      5385            0.0000000000
     16269      5396  TIP3      H2              9.2284196015      -15.3890957466        7.2488953365  SOLV      5385            0.0000000000
     16270      5397  TIP3      OH2             2.4893496015      -17.4944357466        5.4498853365  SOLV      5386            0.0000000000
     16271      5397  TIP3      H1              2.5324596015      -16.6345857466        5.0315153365  SOLV      5386            0.0000000000
     16272      5397  TIP3      H2              2.0317596015      -18.0469657466        4.8162053365  SOLV      5386            0.0000000000
     16273      5398  TIP3      OH2            10.2116196015      -17.3638757466        3.8507153365  SOLV      5387            0.0000000000
     16274      5398  TIP3      H1             10.8580496015      -17.6925557466        4.4754753365  SOLV      5387            0.0000000000
     16275      5398  TIP3      H2             10.7215596015      -16.8459757466        3.2278553365  SOLV      5387            0.0000000000
     16276      5399  TIP3      OH2            -0.8905003985      -15.0978557466        6.2120253365  SOLV      5388            0.0000000000
     16277      5399  TIP3      H1             -0.2368403985      -15.6476857466        6.6440353365  SOLV      5388            0.0000000000
     16278      5399  TIP3      H2             -0.8665703985      -15.3719557466        5.2952253365  SOLV      5388            0.0000000000
     16279      5400  TIP3      OH2             4.2659496015      -13.5477257466        5.4271753365  SOLV      5389            0.0000000000
     16280      5400  TIP3      H1              4.8820496015      -14.0741857466        5.9365753365  SOLV      5389            0.0000000000
     16281      5400  TIP3      H2              3.6798296015      -14.1878557466        5.0235353365  SOLV      5389            0.0000000000
     16282      5401  TIP3      OH2            15.2482596015      -16.9108657466       10.9465253365  SOLV      5390            0.0000000000
     16283      5401  TIP3      H1             14.5597196015      -16.2527957466       10.8511853365  SOLV      5390            0.0000000000
     16284      5401  TIP3      H2             15.2637196015      -17.1080757466       11.8830653365  SOLV      5390            0.0000000000
     16285      5402  TIP3      OH2             8.6685196015       -9.0764857466        3.0678753365  SOLV      5391            0.0000000000
     16286      5402  TIP3      H1              8.3730296015       -9.3992557466        2.2165653365  SOLV      5391            0.0000000000
     16287      5402  TIP3      H2              8.3442996015       -8.1768157466        3.1091353365  SOLV      5391            0.0000000000
     16288      5403  TIP3      OH2             3.8686796015      -10.9010257466        9.8113353365  SOLV      5392            0.0000000000
     16289      5403  TIP3      H1              3.1285896015      -10.3028757466        9.9148553365  SOLV      5392            0.0000000000
     16290      5403  TIP3      H2              4.5826296015      -10.3470657466        9.4956953365  SOLV      5392            0.0000000000
     16291      5404  TIP3      OH2            11.9754596015      -18.0729457466        5.8313053365  SOLV      5393            0.0000000000
     16292      5404  TIP3      H1             11.7602596015      -18.8386057466        6.3639053365  SOLV      5393            0.0000000000
     16293      5404  TIP3      H2             12.6311996015      -17.6004857466        6.3441553365  SOLV      5393            0.0000000000
     16294      5405  TIP3      OH2             0.8932696015      -16.6844157466        7.4761853365  SOLV      5394            0.0000000000
     16295      5405  TIP3      H1              1.5068996015      -16.0516557466        7.8494253365  SOLV      5394            0.0000000000
     16296      5405  TIP3      H2              1.4053396015      -17.1569157466        6.8198753365  SOLV      5394            0.0000000000
     16297      5406  TIP3      OH2             2.2761096015       -8.9367257466       10.5984853365  SOLV      5395            0.0000000000
     16298      5406  TIP3      H1              2.2708696015       -8.0573757466       10.2204153365  SOLV      5395            0.0000000000
     16299      5406  TIP3      H2              1.4225196015       -9.0203157466       11.0234753365  SOLV      5395            0.0000000000
     16300      5407  TIP3      OH2            12.0221696015       -7.6443457466        8.0932653365  SOLV      5396            0.0000000000
     16301      5407  TIP3      H1             11.0805396015       -7.5859557466        8.2549553365  SOLV      5396            0.0000000000
     16302      5407  TIP3      H2             12.2987796015       -6.7382957466        7.9562353365  SOLV      5396            0.0000000000
     16303      5408  TIP3      OH2            12.3228696015      -19.3578157466        9.5106553365  SOLV      5397            0.0000000000
     16304      5408  TIP3      H1             11.5867896015      -18.7471057466        9.4727853365  SOLV      5397            0.0000000000
     16305      5408  TIP3      H2             13.0062696015      -18.9429157466        8.9842953365  SOLV      5397            0.0000000000
     16306      5409  TIP3      OH2             5.3260096015      -21.2710857466        6.9764553365  SOLV      5398            0.0000000000
     16307      5409  TIP3      H1              5.2084296015      -22.2194857466        6.9222853365  SOLV      5398            0.0000000000
     16308      5409  TIP3      H2              4.4710196015      -20.9384757466        7.2495653365  SOLV      5398            0.0000000000
     16309      5410  TIP3      OH2            10.2742896015       -5.8629957466        4.7184253365  SOLV      5399            0.0000000000
     16310      5410  TIP3      H1             10.6995196015       -6.5702057466        4.2333853365  SOLV      5399            0.0000000000
     16311      5410  TIP3      H2             10.5912896015       -5.0617257466        4.3016453365  SOLV      5399            0.0000000000
     16312      5411  TIP3      OH2            11.4339396015       -7.9621457466        3.2270853365  SOLV      5400            0.0000000000
     16313      5411  TIP3      H1             11.1764196015       -8.6521357466        2.6156753365  SOLV      5400            0.0000000000
     16314      5411  TIP3      H2             11.5050196015       -8.4050257466        4.0726753365  SOLV      5400            0.0000000000
     16315      5412  TIP3      OH2            13.1199596015       -9.3954757466       11.7044353365  SOLV      5401            0.0000000000
     16316      5412  TIP3      H1             13.2595896015       -9.9872257466       10.9651353365  SOLV      5401            0.0000000000
     16317      5412  TIP3      H2             13.2872396015       -8.5228857466       11.3483153365  SOLV      5401            0.0000000000
     16318      5413  TIP3      OH2             7.5924996015      -12.4335257466        1.4770353365  SOLV      5402            0.0000000000
     16319      5413  TIP3      H1              6.8810496015      -11.8985557466        1.1250853365  SOLV      5402            0.0000000000
     16320      5413  TIP3      H2              8.2834596015      -12.3783157466        0.8169253365  SOLV      5402            0.0000000000
     16321      5414  TIP3      OH2             7.6464196015      -13.9760957466       -1.4844646635  SOLV      5403            0.0000000000
     16322      5414  TIP3      H1              8.3474096015      -13.9534057466       -0.8330646635  SOLV      5403            0.0000000000
     16323      5414  TIP3      H2              7.9487096015      -14.6041257466       -2.1405346635  SOLV      5403            0.0000000000
     16324      5415  TIP3      OH2            14.9618896015      -13.0556757466        9.7704753365  SOLV      5404            0.0000000000
     16325      5415  TIP3      H1             14.3092996015      -12.3611157466        9.8595653365  SOLV      5404            0.0000000000
     16326      5415  TIP3      H2             15.4269196015      -12.8455857466        8.9606353365  SOLV      5404            0.0000000000
     16327      5416  TIP3      OH2            10.9982696015      -12.2241957466        2.4286253365  SOLV      5405            0.0000000000
     16328      5416  TIP3      H1             10.2663696015      -11.9958257466        3.0016853365  SOLV      5405            0.0000000000
     16329      5416  TIP3      H2             11.4454896015      -12.9379257466        2.8833753365  SOLV      5405            0.0000000000
     16330      5417  TIP3      OH2            10.8956196015      -14.0499357466       11.4963253365  SOLV      5406            0.0000000000
     16331      5417  TIP3      H1             10.9755296015      -13.2864957466       12.0681753365  SOLV      5406            0.0000000000
     16332      5417  TIP3      H2             10.2943896015      -13.7706957466       10.8058353365  SOLV      5406            0.0000000000
     16333      5418  TIP3      OH2             2.6436396015      -11.5935757466        4.3111253365  SOLV      5407            0.0000000000
     16334      5418  TIP3      H1              2.3131596015      -11.9642357466        3.4928253365  SOLV      5407            0.0000000000
     16335      5418  TIP3      H2              3.2320496015      -12.2641757466        4.6579553365  SOLV      5407            0.0000000000
     16336      5419  TIP3      OH2             4.0103896015       -8.1655157466        6.9923453365  SOLV      5408            0.0000000000
     16337      5419  TIP3      H1              3.9155196015       -8.7442057466        6.2358053365  SOLV      5408            0.0000000000
     16338      5419  TIP3      H2              4.7397496015       -8.5369457466        7.4886253365  SOLV      5408            0.0000000000
     16339      5420  TIP3      OH2             3.0101896015      -12.8250157466        7.9446253365  SOLV      5409            0.0000000000
     16340      5420  TIP3      H1              3.5754396015      -12.7035957466        7.1817453365  SOLV      5409            0.0000000000
     16341      5420  TIP3      H2              3.3290796015      -12.1875157466        8.5834753365  SOLV      5409            0.0000000000
     16342      5421  TIP3      OH2             9.3194096015       -7.3218257466        8.6786753365  SOLV      5410            0.0000000000
     16343      5421  TIP3      H1              9.0790696015       -6.6595157466        9.3265953365  SOLV      5410            0.0000000000
     16344      5421  TIP3      H2              9.1212296015       -8.1563057466        9.1036353365  SOLV      5410            0.0000000000
     16345      5422  TIP3      OH2             3.8902596015       -8.4257457466       12.6618153365  SOLV      5411            0.0000000000
     16346      5422  TIP3      H1              3.5790096015       -7.6434257466       13.1171353365  SOLV      5411            0.0000000000
     16347      5422  TIP3      H2              3.2402796015       -8.5788357466       11.9760153365  SOLV      5411            0.0000000000
     16348      5423  TIP3      OH2             9.8692196015      -13.0619057466        0.1137453365  SOLV      5412            0.0000000000
     16349      5423  TIP3      H1             10.4487696015      -12.9118757466        0.8606353365  SOLV      5412            0.0000000000
     16350      5423  TIP3      H2             10.2832196015      -12.5911657466       -0.6096146635  SOLV      5412            0.0000000000
     16351      5424  TIP3      OH2             0.8102496015      -12.2276357466       11.8903853365  SOLV      5413            0.0000000000
     16352      5424  TIP3      H1              0.8805696015      -11.5769557466       12.5888853365  SOLV      5413            0.0000000000
     16353      5424  TIP3      H2             -0.0805303985      -12.1248857466       11.5554753365  SOLV      5413            0.0000000000
     16354      5425  TIP3      OH2             2.1298496015       -6.3542457466       13.4251953365  SOLV      5414            0.0000000000
     16355      5425  TIP3      H1              2.1373796015       -6.4902757466       12.4777453365  SOLV      5414            0.0000000000
     16356      5425  TIP3      H2              1.2138896015       -6.4714357466       13.6771953365  SOLV      5414            0.0000000000
     16357      5426  TIP3      OH2            14.7571996015       -6.9456257466       -1.6968946635  SOLV      5415            0.0000000000
     16358      5426  TIP3      H1             14.8305496015       -6.0066057466       -1.5263646635  SOLV      5415            0.0000000000
     16359      5426  TIP3      H2             15.6627096015       -7.2507657466       -1.7531646635  SOLV      5415            0.0000000000
     16360      5427  TIP3      OH2            -2.2730803985      -10.1612257466       10.7153853365  SOLV      5416            0.0000000000
     16361      5427  TIP3      H1             -2.7742403985      -10.1892857466        9.9003553365  SOLV      5416            0.0000000000
     16362      5427  TIP3      H2             -2.2677103985      -11.0669057466       11.0251153365  SOLV      5416            0.0000000000
     16363      5428  TIP3      OH2            -2.5228103985       -7.3808457466        7.5994053365  SOLV      5417            0.0000000000
     16364      5428  TIP3      H1             -1.5767503985       -7.5251457466        7.5803553365  SOLV      5417            0.0000000000
     16365      5428  TIP3      H2             -2.6351803985       -6.5965657466        8.1365253365  SOLV      5417            0.0000000000
     16366      5429  TIP3      OH2            15.6750396015       -6.7148757466       13.2817753365  SOLV      5418            0.0000000000
     16367      5429  TIP3      H1             15.6257196015       -7.6700657466       13.2445353365  SOLV      5418            0.0000000000
     16368      5429  TIP3      H2             14.8482696015       -6.4473457466       13.6831553365  SOLV      5418            0.0000000000
     16369      5430  TIP3      OH2             6.6534396015       -7.1409557466       12.1579153365  SOLV      5419            0.0000000000
     16370      5430  TIP3      H1              6.7408996015       -6.3144957466       12.6328253365  SOLV      5419            0.0000000000
     16371      5430  TIP3      H2              5.7899496015       -7.4705757466       12.4068453365  SOLV      5419            0.0000000000
     16372      5431  TIP3      OH2             0.7213996015       -4.5798857466        3.7448753365  SOLV      5420            0.0000000000
     16373      5431  TIP3      H1              0.8734396015       -4.9278457466        4.6235253365  SOLV      5420            0.0000000000
     16374      5431  TIP3      H2             -0.1295603985       -4.9361557466        3.4895953365  SOLV      5420            0.0000000000
     16375      5432  TIP3      OH2            12.8270196015      -15.2216257466       13.7619953365  SOLV      5421            0.0000000000
     16376      5432  TIP3      H1             12.4196996015      -14.7410657466       13.0413253365  SOLV      5421            0.0000000000
     16377      5432  TIP3      H2             12.8675896015      -16.1270257466       13.4540753365  SOLV      5421            0.0000000000
     16378      5433  TIP3      OH2            -0.0240303985       -8.8376857466       11.7586653365  SOLV      5422            0.0000000000
     16379      5433  TIP3      H1              0.1920996015       -9.1991257466       12.6182453365  SOLV      5422            0.0000000000
     16380      5433  TIP3      H2             -0.8795603985       -9.2123057466       11.5490153365  SOLV      5422            0.0000000000
     16381      5434  TIP3      OH2             2.5947696015      -20.3676357466        7.7540853365  SOLV      5423            0.0000000000
     16382      5434  TIP3      H1              1.7331396015      -20.4548157466        7.3463753365  SOLV      5423            0.0000000000
     16383      5434  TIP3      H2              2.5723396015      -19.5116257466        8.1818453365  SOLV      5423            0.0000000000
     16384      5435  TIP3      OH2             7.2575496015      -20.6455957466       11.1287853365  SOLV      5424            0.0000000000
     16385      5435  TIP3      H1              7.6778596015      -21.0608857466       11.8818453365  SOLV      5424            0.0000000000
     16386      5435  TIP3      H2              6.3245096015      -20.8242657466       11.2459853365  SOLV      5424            0.0000000000
     16387      5436  TIP3      OH2            10.5840396015      -16.8900757466       11.9822353365  SOLV      5425            0.0000000000
     16388      5436  TIP3      H1             10.0699896015      -17.0158557466       12.7798353365  SOLV      5425            0.0000000000
     16389      5436  TIP3      H2             10.4285096015      -15.9777657466       11.7378553365  SOLV      5425            0.0000000000
     16390      5437  TIP3      OH2            11.3465296015      -12.0290757466       -2.2564646635  SOLV      5426            0.0000000000
     16391      5437  TIP3      H1             11.3886096015      -12.2516857466       -3.1864646635  SOLV      5426            0.0000000000
     16392      5437  TIP3      H2             12.1957396015      -11.6303657466       -2.0664746635  SOLV      5426            0.0000000000
     16393      5438  TIP3      OH2             6.9192796015      -18.1532557466       -1.5861346635  SOLV      5427            0.0000000000
     16394      5438  TIP3      H1              6.6657596015      -18.1340957466       -0.6633246635  SOLV      5427            0.0000000000
     16395      5438  TIP3      H2              6.6624896015      -19.0247157466       -1.8875146635  SOLV      5427            0.0000000000
     16396      5439  TIP3      OH2             2.6826896015      -15.1811757466        3.7611053365  SOLV      5428            0.0000000000
     16397      5439  TIP3      H1              1.7899796015      -15.5215657466        3.7024853365  SOLV      5428            0.0000000000
     16398      5439  TIP3      H2              3.1333496015      -15.5580857466        3.0054253365  SOLV      5428            0.0000000000
     16399      5440  TIP3      OH2             8.2182396015      -14.7651457466        2.5781853365  SOLV      5429            0.0000000000
     16400      5440  TIP3      H1              7.8092696015      -13.9502857466        2.2866653365  SOLV      5429            0.0000000000
     16401      5440  TIP3      H2              8.9388596015      -14.9051357466        1.9638953365  SOLV      5429            0.0000000000
     16402      5441  TIP3      OH2             7.3203996015      -14.5895057466       14.0662553365  SOLV      5430            0.0000000000
     16403      5441  TIP3      H1              6.7577796015      -15.2943457466       14.3870353365  SOLV      5430            0.0000000000
     16404      5441  TIP3      H2              8.1467396015      -14.7103157466       14.5340153365  SOLV      5430            0.0000000000
     16405      5442  TIP3      OH2             9.2230096015      -15.3191057466        5.3921553365  SOLV      5431            0.0000000000
     16406      5442  TIP3      H1              9.0274596015      -14.7134257466        4.6772153365  SOLV      5431            0.0000000000
     16407      5442  TIP3      H2              9.4042696015      -16.1525857466        4.9577853365  SOLV      5431            0.0000000000
     16408      5443  TIP3      OH2             3.8015696015      -17.7076057466       -2.4850946635  SOLV      5432            0.0000000000
     16409      5443  TIP3      H1              3.3706396015      -18.1525957466       -1.7553546635  SOLV      5432            0.0000000000
     16410      5443  TIP3      H2              3.0834396015      -17.3359757466       -2.9973446635  SOLV      5432            0.0000000000
     16411      5444  TIP3      OH2            -2.9560903985      -17.9656557466        4.5667753365  SOLV      5433            0.0000000000
     16412      5444  TIP3      H1             -2.3253203985      -17.9944457466        5.2861653365  SOLV      5433            0.0000000000
     16413      5444  TIP3      H2             -2.5066603985      -18.3907857466        3.8363653365  SOLV      5433            0.0000000000
     16414      5445  TIP3      OH2            -1.6818803985      -17.2194557466       -0.0091846635  SOLV      5434            0.0000000000
     16415      5445  TIP3      H1             -1.2077103985      -16.6284657466       -0.5940946635  SOLV      5434            0.0000000000
     16416      5445  TIP3      H2             -2.3992403985      -16.6891657466        0.3378253365  SOLV      5434            0.0000000000
     16417      5446  TIP3      OH2             8.4869296015      -13.6809757466       10.0633953365  SOLV      5435            0.0000000000
     16418      5446  TIP3      H1              8.8104096015      -14.3120057466        9.4204453365  SOLV      5435            0.0000000000
     16419      5446  TIP3      H2              8.0468596015      -14.2157557466       10.7241353365  SOLV      5435            0.0000000000
     16420      5447  TIP3      OH2             5.2642196015      -17.7534257466        4.8475153365  SOLV      5436            0.0000000000
     16421      5447  TIP3      H1              4.3533296015      -17.6967457466        5.1361153365  SOLV      5436            0.0000000000
     16422      5447  TIP3      H2              5.7695096015      -17.8138757466        5.6582353365  SOLV      5436            0.0000000000
     16423      5448  TIP3      OH2             0.0925596015      -16.1247957466        3.6742753365  SOLV      5437            0.0000000000
     16424      5448  TIP3      H1             -0.7966403985      -16.0252457466        3.3342353365  SOLV      5437            0.0000000000
     16425      5448  TIP3      H2              0.3890496015      -16.9664957466        3.3280653365  SOLV      5437            0.0000000000
     16426      5449  TIP3      OH2             3.7457396015      -16.1245357466        1.3307353365  SOLV      5438            0.0000000000
     16427      5449  TIP3      H1              4.6772896015      -15.9955357466        1.5090453365  SOLV      5438            0.0000000000
     16428      5449  TIP3      H2              3.5307696015      -15.4551057466        0.6812053365  SOLV      5438            0.0000000000
     16429      5450  TIP3      OH2             9.6694096015      -18.5187957466        8.1116953365  SOLV      5439            0.0000000000
     16430      5450  TIP3      H1              8.9925696015      -18.3874857466        8.7756653365  SOLV      5439            0.0000000000
     16431      5450  TIP3      H2              9.1838996015      -18.6738457466        7.3014653365  SOLV      5439            0.0000000000
     16432      5451  TIP3      OH2             2.4197596015      -14.9303157466       -1.1026546635  SOLV      5440            0.0000000000
     16433      5451  TIP3      H1              1.8772696015      -15.3099357466       -1.7938946635  SOLV      5440            0.0000000000
     16434      5451  TIP3      H2              3.2532496015      -14.7358457466       -1.5312446635  SOLV      5440            0.0000000000
     16435      5452  TIP3      OH2            12.9569196015       -2.8472557466       14.3884553365  SOLV      5441            0.0000000000
     16436      5452  TIP3      H1             13.1567896015       -2.4230657466       13.5539853365  SOLV      5441            0.0000000000
     16437      5452  TIP3      H2             13.6122896015       -2.5034357466       14.9954953365  SOLV      5441            0.0000000000
     16438      5453  TIP3      OH2             0.5548996015      -10.3731257466       13.9965053365  SOLV      5442            0.0000000000
     16439      5453  TIP3      H1              1.2871396015      -10.1185357466       14.5579553365  SOLV      5442            0.0000000000
     16440      5453  TIP3      H2             -0.2252303985      -10.1685857466       14.5120453365  SOLV      5442            0.0000000000
     16441      5454  TIP3      OH2             6.5841896015      -14.9661257466        6.7344753365  SOLV      5443            0.0000000000
     16442      5454  TIP3      H1              7.1485296015      -15.5124657466        6.1874353365  SOLV      5443            0.0000000000
     16443      5454  TIP3      H2              6.4365296015      -15.4879357466        7.5232353365  SOLV      5443            0.0000000000
     16444      5455  TIP3      OH2             1.5861596015      -18.8295157466        3.1529553365  SOLV      5444            0.0000000000
     16445      5455  TIP3      H1              1.2691096015      -19.7319857466        3.1174953365  SOLV      5444            0.0000000000
     16446      5455  TIP3      H2              2.3675696015      -18.8277757466        2.6001153365  SOLV      5444            0.0000000000
     16447      5456  TIP3      OH2             5.2107796015      -16.5775157466        9.1485153365  SOLV      5445            0.0000000000
     16448      5456  TIP3      H1              4.3753096015      -16.1235657466        9.2587553365  SOLV      5445            0.0000000000
     16449      5456  TIP3      H2              5.7348396015      -16.3016657466        9.9005053365  SOLV      5445            0.0000000000
     16450      5457  TIP3      OH2             5.7550396015      -10.3647457466        0.8331553365  SOLV      5446            0.0000000000
     16451      5457  TIP3      H1              5.0101396015      -10.8722157466        0.5109453365  SOLV      5446            0.0000000000
     16452      5457  TIP3      H2              5.6207596015      -10.3159457466        1.7796353365  SOLV      5446            0.0000000000
     16453      5458  TIP3      OH2            12.9049296015      -11.2319257466        9.6199153365  SOLV      5447            0.0000000000
     16454      5458  TIP3      H1             13.5468096015      -10.7752957466        9.0761353365  SOLV      5447            0.0000000000
     16455      5458  TIP3      H2             12.0746196015      -11.1186857466        9.1573253365  SOLV      5447            0.0000000000
     16456      5459  TIP3      OH2             9.6527196015      -17.5507557466       -0.9675846635  SOLV      5448            0.0000000000
     16457      5459  TIP3      H1              8.7141396015      -17.4391957466       -1.1187046635  SOLV      5448            0.0000000000
     16458      5459  TIP3      H2              9.9499296015      -16.6940657466       -0.6610146635  SOLV      5448            0.0000000000
     16459      5460  TIP3      OH2             7.2742496015      -10.1804157466       12.0700653365  SOLV      5449            0.0000000000
     16460      5460  TIP3      H1              6.9288596015      -10.5621757466       12.8770253365  SOLV      5449            0.0000000000
     16461      5460  TIP3      H2              7.0742596015       -9.2470557466       12.1413553365  SOLV      5449            0.0000000000
     16462      5461  TIP3      OH2            10.3710696015      -15.6834857466        0.6931553365  SOLV      5450            0.0000000000
     16463      5461  TIP3      H1             11.2629696015      -15.8209857466        1.0122753365  SOLV      5450            0.0000000000
     16464      5461  TIP3      H2             10.4274296015      -14.8928757466        0.1565053365  SOLV      5450            0.0000000000
     16465      5462  TIP3      OH2             0.8798696015      -11.0697457466        6.6029453365  SOLV      5451            0.0000000000
     16466      5462  TIP3      H1              1.6245896015      -11.0721757466        6.0015953365  SOLV      5451            0.0000000000
     16467      5462  TIP3      H2              0.9575296015      -11.8933657466        7.0844553365  SOLV      5451            0.0000000000
     16468      5463  TIP3      OH2             7.8804496015       -8.9063157466       -0.1413846635  SOLV      5452            0.0000000000
     16469      5463  TIP3      H1              7.5852896015       -8.0795257466        0.2400953365  SOLV      5452            0.0000000000
     16470      5463  TIP3      H2              7.1774496015       -9.5256257466        0.0547553365  SOLV      5452            0.0000000000
     16471      5464  TIP3      OH2            -2.1121603985      -12.6090557466       11.9177953365  SOLV      5453            0.0000000000
     16472      5464  TIP3      H1             -1.8893003985      -13.0270957466       12.7495453365  SOLV      5453            0.0000000000
     16473      5464  TIP3      H2             -2.7141503985      -13.2215557466       11.4950753365  SOLV      5453            0.0000000000
     16474      5465  TIP3      OH2             4.9043296015      -13.0920657466       14.1307653365  SOLV      5454            0.0000000000
     16475      5465  TIP3      H1              4.6084096015      -13.2577657466       13.2356753365  SOLV      5454            0.0000000000
     16476      5465  TIP3      H2              5.8358496015      -13.3120357466       14.1201553365  SOLV      5454            0.0000000000
     16477      5466  TIP3      OH2             9.5246096015       -7.7188657466       12.0205653365  SOLV      5455            0.0000000000
     16478      5466  TIP3      H1              8.6240396015       -7.5356057466       11.7529553365  SOLV      5455            0.0000000000
     16479      5466  TIP3      H2              9.5587196015       -7.4599357466       12.9414453365  SOLV      5455            0.0000000000
     16480      5467  TIP3      OH2            15.2559396015      -15.4740757466        0.3878253365  SOLV      5456            0.0000000000
     16481      5467  TIP3      H1             14.7015696015      -15.8702757466       -0.2844246635  SOLV      5456            0.0000000000
     16482      5467  TIP3      H2             15.3562996015      -14.5635557466        0.1101553365  SOLV      5456            0.0000000000
     16483      5468  TIP3      OH2            15.2191396015       -9.6739057466       13.2249753365  SOLV      5457            0.0000000000
     16484      5468  TIP3      H1             14.3679896015       -9.4355257466       12.8576153365  SOLV      5457            0.0000000000
     16485      5468  TIP3      H2             15.8094796015       -9.6905857466       12.4716853365  SOLV      5457            0.0000000000
     16486      5469  TIP3      OH2            13.5511096015       -6.6880357466        0.8530353365  SOLV      5458            0.0000000000
     16487      5469  TIP3      H1             13.1782196015       -7.5136557466        1.1620953365  SOLV      5458            0.0000000000
     16488      5469  TIP3      H2             13.8284596015       -6.8710957466       -0.0446246635  SOLV      5458            0.0000000000
     16489      5470  TIP3      OH2            10.7114996015      -11.8800857466        7.8742253365  SOLV      5459            0.0000000000
     16490      5470  TIP3      H1              9.7831896015      -12.1118957466        7.8471553365  SOLV      5459            0.0000000000
     16491      5470  TIP3      H2             11.1626096015      -12.6571057466        7.5441053365  SOLV      5459            0.0000000000
     16492      5471  TIP3      OH2             3.2548096015       -7.5519257466        4.0070953365  SOLV      5460            0.0000000000
     16493      5471  TIP3      H1              3.7820296015       -6.7784857466        3.8069753365  SOLV      5460            0.0000000000
     16494      5471  TIP3      H2              2.3746596015       -7.3270057466        3.7054953365  SOLV      5460            0.0000000000
     16495      5472  TIP3      OH2            -0.9904203985      -12.6895157466       -1.4056646635  SOLV      5461            0.0000000000
     16496      5472  TIP3      H1             -0.3744303985      -12.0627957466       -1.0261846635  SOLV      5461            0.0000000000
     16497      5472  TIP3      H2             -1.8521603985      -12.3735357466       -1.1340146635  SOLV      5461            0.0000000000
     16498      5473  TIP3      OH2             4.6820396015       -9.8889357466        3.5835253365  SOLV      5462            0.0000000000
     16499      5473  TIP3      H1              4.4410396015       -8.9634957466        3.6250553365  SOLV      5462            0.0000000000
     16500      5473  TIP3      H2              3.9413996015      -10.3478057466        3.9799153365  SOLV      5462            0.0000000000
     16501      5474  TIP3      OH2             5.1966996015       -5.7395757466        9.8986353365  SOLV      5463            0.0000000000
     16502      5474  TIP3      H1              5.5591696015       -4.8850157466        9.6650753365  SOLV      5463            0.0000000000
     16503      5474  TIP3      H2              5.7282196015       -6.0314157466       10.6392653365  SOLV      5463            0.0000000000
     16504      5475  TIP3      OH2             3.3651196015       -4.8671757466        3.1287453365  SOLV      5464            0.0000000000
     16505      5475  TIP3      H1              2.4151696015       -4.7614357466        3.1800753365  SOLV      5464            0.0000000000
     16506      5475  TIP3      H2              3.7169296015       -4.0464357466        3.4734953365  SOLV      5464            0.0000000000
     16507      5476  TIP3      OH2             8.7407796015       -9.6405057466        9.5991953365  SOLV      5465            0.0000000000
     16508      5476  TIP3      H1              8.3149096015       -9.8683357466       10.4255953365  SOLV      5465            0.0000000000
     16509      5476  TIP3      H2              9.3213596015      -10.3793257466        9.4167253365  SOLV      5465            0.0000000000
     16510      5477  TIP3      OH2            10.9436696015       -8.7114557466       -1.3269046635  SOLV      5466            0.0000000000
     16511      5477  TIP3      H1             11.2969796015       -9.0914757466       -0.5225546635  SOLV      5466            0.0000000000
     16512      5477  TIP3      H2              9.9950196015       -8.8049757466       -1.2399746635  SOLV      5466            0.0000000000
     16513      5478  TIP3      OH2            11.3991996015       -5.0885557466       12.0686753365  SOLV      5467            0.0000000000
     16514      5478  TIP3      H1             10.7975196015       -5.6442657466       11.5733053365  SOLV      5467            0.0000000000
     16515      5478  TIP3      H2             11.6805696015       -4.4215757466       11.4424153365  SOLV      5467            0.0000000000
     16516      5479  TIP3      OH2            15.4471096015       -4.2322057466       -1.1258846635  SOLV      5468            0.0000000000
     16517      5479  TIP3      H1             16.1908996015       -3.6461557466       -1.2657246635  SOLV      5468            0.0000000000
     16518      5479  TIP3      H2             14.7529196015       -3.6636257466       -0.7926446635  SOLV      5468            0.0000000000
     16519      5480  TIP3      OH2            -0.4782103985      -17.8557857466       11.4759353365  SOLV      5469            0.0000000000
     16520      5480  TIP3      H1             -1.3709803985      -17.5172457466       11.4083353365  SOLV      5469            0.0000000000
     16521      5480  TIP3      H2             -0.5769303985      -18.7111757466       11.8940153365  SOLV      5469            0.0000000000
     16522      5481  TIP3      OH2            11.8095996015      -10.0392557466        0.8998853365  SOLV      5470            0.0000000000
     16523      5481  TIP3      H1             11.5323596015      -10.7673257466        1.4559953365  SOLV      5470            0.0000000000
     16524      5481  TIP3      H2             12.7368996015       -9.9200557466        1.1051453365  SOLV      5470            0.0000000000
     16525      5482  TIP3      OH2            -0.8270103985       -6.0513457466        9.9108753365  SOLV      5471            0.0000000000
     16526      5482  TIP3      H1             -0.6099803985       -6.9831057466        9.8798453365  SOLV      5471            0.0000000000
     16527      5482  TIP3      H2             -0.5806603985       -5.7768457466       10.7941553365  SOLV      5471            0.0000000000
     16528      5483  TIP3      OH2             5.0344496015       -7.5998457466       -2.8799046635  SOLV      5472            0.0000000000
     16529      5483  TIP3      H1              5.2734296015       -8.3480357466       -3.4270146635  SOLV      5472            0.0000000000
     16530      5483  TIP3      H2              4.7655796015       -7.9876757466       -2.0471246635  SOLV      5472            0.0000000000
     16531      5484  TIP3      OH2             3.9715096015       -8.0294657466       -0.4236446635  SOLV      5473            0.0000000000
     16532      5484  TIP3      H1              4.1183096015       -8.5494857466        0.3664453365  SOLV      5473            0.0000000000
     16533      5484  TIP3      H2              3.9686796015       -7.1227057466       -0.1170546635  SOLV      5473            0.0000000000
     16534      5485  TIP3      OH2             8.2561296015      -18.1147557466       10.3657953365  SOLV      5474            0.0000000000
     16535      5485  TIP3      H1              8.9549196015      -18.0408857466       11.0157653365  SOLV      5474            0.0000000000
     16536      5485  TIP3      H2              7.8752696015      -18.9792557466       10.5200853365  SOLV      5474            0.0000000000
     16537      5486  TIP3      OH2             9.0406196015      -18.4625857466        1.4630253365  SOLV      5475            0.0000000000
     16538      5486  TIP3      H1              9.2604496015      -17.9910457466        0.6595653365  SOLV      5475            0.0000000000
     16539      5486  TIP3      H2              9.5990196015      -18.0683257466        2.1330853365  SOLV      5475            0.0000000000
     16540      5487  TIP3      OH2             6.2406096015      -16.7347057466        2.2978653365  SOLV      5476            0.0000000000
     16541      5487  TIP3      H1              7.0528696015      -16.2303857466        2.3440353365  SOLV      5476            0.0000000000
     16542      5487  TIP3      H2              5.9959096015      -16.8797357466        3.2118253365  SOLV      5476            0.0000000000
     16543      5488  TIP3      OH2             6.7762496015      -15.7484357466       11.4825253365  SOLV      5477            0.0000000000
     16544      5488  TIP3      H1              6.8952796015      -15.1748957466       12.2395653365  SOLV      5477            0.0000000000
     16545      5488  TIP3      H2              7.4317096015      -16.4364957466       11.5973053365  SOLV      5477            0.0000000000
     16546      5489  TIP3      OH2             7.1242796015      -19.6534057466        3.2359753365  SOLV      5478            0.0000000000
     16547      5489  TIP3      H1              6.7776296015      -19.0363457466        3.8804053365  SOLV      5478            0.0000000000
     16548      5489  TIP3      H2              7.7829696015      -19.1528357466        2.7545253365  SOLV      5478            0.0000000000
     16549      5490  TIP3      OH2             4.0475396015       -5.2883857466        0.3074653365  SOLV      5479            0.0000000000
     16550      5490  TIP3      H1              4.2084096015       -4.4886357466       -0.1932746635  SOLV      5479            0.0000000000
     16551      5490  TIP3      H2              3.8503196015       -4.9817857466        1.1925253365  SOLV      5479            0.0000000000
     16552      5491  TIP3      OH2             2.7819796015      -18.5904657466       -0.0767746635  SOLV      5480            0.0000000000
     16553      5491  TIP3      H1              2.6984596015      -17.7021557466        0.2698653365  SOLV      5480            0.0000000000
     16554      5491  TIP3      H2              3.6720096015      -18.8557957466        0.1549053365  SOLV      5480            0.0000000000
     16555      5492  TIP3      OH2            12.9808296015      -17.8414057466       12.3174953365  SOLV      5481            0.0000000000
     16556      5492  TIP3      H1             12.0644096015      -17.5792357466       12.2298653365  SOLV      5481            0.0000000000
     16557      5492  TIP3      H2             13.3163296015      -17.8445057466       11.4210253365  SOLV      5481            0.0000000000
     16558      5493  TIP3      OH2            11.5829296015      -14.0913057466        6.4132253365  SOLV      5482            0.0000000000
     16559      5493  TIP3      H1             10.7853696015      -14.5062857466        6.0847253365  SOLV      5482            0.0000000000
     16560      5493  TIP3      H2             12.0280396015      -14.7819357466        6.9042753365  SOLV      5482            0.0000000000
     16561      5494  TIP3      OH2             1.0405096015       -8.1632457466       -1.0163246635  SOLV      5483            0.0000000000
     16562      5494  TIP3      H1              1.6326596015       -7.4637657466       -0.7400846635  SOLV      5483            0.0000000000
     16563      5494  TIP3      H2              1.4998096015       -8.5962957466       -1.7358646635  SOLV      5483            0.0000000000
     16564      5495  TIP3      OH2            -0.6435703985      -15.4989457466       -1.9003846635  SOLV      5484            0.0000000000
     16565      5495  TIP3      H1             -0.6883103985      -14.5596357466       -1.7216846635  SOLV      5484            0.0000000000
     16566      5495  TIP3      H2             -1.5312503985      -15.7344557466       -2.1701746635  SOLV      5484            0.0000000000
     16567      5496  TIP3      OH2            12.6693896015       -4.8350557466        8.0355753365  SOLV      5485            0.0000000000
     16568      5496  TIP3      H1             12.5138196015       -4.1566157466        7.3785053365  SOLV      5485            0.0000000000
     16569      5496  TIP3      H2             13.6020296015       -4.7631257466        8.2386353365  SOLV      5485            0.0000000000
     16570      5497  TIP3      OH2             0.1646296015      -20.7172857466        6.7727153365  SOLV      5486            0.0000000000
     16571      5497  TIP3      H1             -0.0643903985      -20.6580357466        5.8452153365  SOLV      5486            0.0000000000
     16572      5497  TIP3      H2             -0.2780303985      -21.5087357466        7.0791253365  SOLV      5486            0.0000000000
     16573      5498  TIP3      OH2            -0.9050403985       -6.7765757466        2.9332953365  SOLV      5487            0.0000000000
     16574      5498  TIP3      H1             -1.7371803985       -6.3043057466        2.9604353365  SOLV      5487            0.0000000000
     16575      5498  TIP3      H2             -0.3592103985       -6.2668157466        2.3346053365  SOLV      5487            0.0000000000
     16576      5499  TIP3      OH2            -1.6166703985       -4.1642057466       14.2630953365  SOLV      5488            0.0000000000
     16577      5499  TIP3      H1             -1.0764503985       -4.3808057466       15.0230153365  SOLV      5488            0.0000000000
     16578      5499  TIP3      H2             -2.0978703985       -4.9696057466       14.0733453365  SOLV      5488            0.0000000000
     16579      5500  TIP3      OH2             2.9806696015       -5.2447657466       15.8835153365  SOLV      5489            0.0000000000
     16580      5500  TIP3      H1              3.7483896015       -5.7036857466       16.2244353365  SOLV      5489            0.0000000000
     16581      5500  TIP3      H2              2.9592896015       -5.4707857466       14.9536353365  SOLV      5489            0.0000000000
     16582      5501  TIP3      OH2             9.5575396015       -6.8646557466       14.6126653365  SOLV      5490            0.0000000000
     16583      5501  TIP3      H1              9.2064896015       -7.7213557466       14.8557053365  SOLV      5490            0.0000000000
     16584      5501  TIP3      H2             10.2838596015       -6.7219857466       15.2195653365  SOLV      5490            0.0000000000
     16585      5502  TIP3      OH2            11.6769196015       -5.9197157466       -2.5075046635  SOLV      5491            0.0000000000
     16586      5502  TIP3      H1             11.9599596015       -6.7141957466       -2.0548146635  SOLV      5491            0.0000000000
     16587      5502  TIP3      H2             12.4167096015       -5.6866157466       -3.0683946635  SOLV      5491            0.0000000000
     16588      5503  TIP3      OH2            -1.7097203985      -10.3537957466       15.2175253365  SOLV      5492            0.0000000000
     16589      5503  TIP3      H1             -1.5656703985      -11.2557257466       14.9311953365  SOLV      5492            0.0000000000
     16590      5503  TIP3      H2             -2.4819803985      -10.0675857466       14.7297553365  SOLV      5492            0.0000000000
     16591      5504  TIP3      OH2             2.6316496015      -10.0102257466       -2.6500146635  SOLV      5493            0.0000000000
     16592      5504  TIP3      H1              2.6960596015      -10.8042657466       -2.1193746635  SOLV      5493            0.0000000000
     16593      5504  TIP3      H2              3.2845696015      -10.1289457466       -3.3398146635  SOLV      5493            0.0000000000
     16594      5505  TIP3      OH2             4.9458896015      -10.3839857466       14.6501653365  SOLV      5494            0.0000000000
     16595      5505  TIP3      H1              4.6172696015      -10.1131757466       13.7929053365  SOLV      5494            0.0000000000
     16596      5505  TIP3      H2              5.0977096015      -11.3250057466       14.5626653365  SOLV      5494            0.0000000000
     16597      5506  TIP3      OH2             7.9839896015       -8.9630557466       -2.9142146635  SOLV      5495            0.0000000000
     16598      5506  TIP3      H1              7.7153996015       -8.7828457466       -2.0133246635  SOLV      5495            0.0000000000
     16599      5506  TIP3      H2              7.7775496015       -9.8884357466       -3.0456346635  SOLV      5495            0.0000000000
     16600      5507  TIP3      OH2            10.6804096015      -10.4682557466       12.0333953365  SOLV      5496            0.0000000000
     16601      5507  TIP3      H1             11.4258896015       -9.8798857466       11.9137953365  SOLV      5496            0.0000000000
     16602      5507  TIP3      H2              9.9230896015       -9.8862857466       12.0967053365  SOLV      5496            0.0000000000
     16603      5508  TIP3      OH2            -0.8770703985      -13.1534657466       14.6374553365  SOLV      5497            0.0000000000
     16604      5508  TIP3      H1             -0.4689503985      -14.0108057466       14.5165153365  SOLV      5497            0.0000000000
     16605      5508  TIP3      H2             -1.1373103985      -13.1393357466       15.5584853365  SOLV      5497            0.0000000000
     16606      5509  TIP3      OH2             3.7810296015      -12.0376057466       -0.3442146635  SOLV      5498            0.0000000000
     16607      5509  TIP3      H1              3.3212296015      -12.5217757466        0.3416353365  SOLV      5498            0.0000000000
     16608      5509  TIP3      H2              4.0358996015      -12.7060657466       -0.9801646635  SOLV      5498            0.0000000000
     16609      5510  TIP3      OH2             3.0699596015      -14.1448957466       12.0117453365  SOLV      5499            0.0000000000
     16610      5510  TIP3      H1              2.4515696015      -13.4702357466       12.2922153365  SOLV      5499            0.0000000000
     16611      5510  TIP3      H2              3.4140796015      -13.8235057466       11.1783653365  SOLV      5499            0.0000000000
     16612      5511  TIP3      OH2             4.8520696015      -13.7944257466       -2.0818946635  SOLV      5500            0.0000000000
     16613      5511  TIP3      H1              4.6715696015      -13.9493057466       -3.0090646635  SOLV      5500            0.0000000000
     16614      5511  TIP3      H2              5.8021196015      -13.6865557466       -2.0371046635  SOLV      5500            0.0000000000
     16615      5512  TIP3      OH2             8.0897796015      -11.6733657466       15.2892253365  SOLV      5501            0.0000000000
     16616      5512  TIP3      H1              9.0428996015      -11.5894557466       15.2618253365  SOLV      5501            0.0000000000
     16617      5512  TIP3      H2              7.9292396015      -12.3851857466       15.9087153365  SOLV      5501            0.0000000000
     16618      5513  TIP3      OH2            14.2418996015      -11.4400057466       -2.6360846635  SOLV      5502            0.0000000000
     16619      5513  TIP3      H1             13.9683796015      -11.8644557466       -3.4492546635  SOLV      5502            0.0000000000
     16620      5513  TIP3      H2             14.2813096015      -10.5085557466       -2.8530446635  SOLV      5502            0.0000000000
     16621      5514  TIP3      OH2             3.4093296015      -16.7898157466       13.0940553365  SOLV      5503            0.0000000000
     16622      5514  TIP3      H1              3.5594196015      -17.5186857466       12.4920253365  SOLV      5503            0.0000000000
     16623      5514  TIP3      H2              3.4115696015      -16.0126457466       12.5352753365  SOLV      5503            0.0000000000
     16624      5515  TIP3      OH2             5.4037396015      -12.9806157466       10.8263153365  SOLV      5504            0.0000000000
     16625      5515  TIP3      H1              6.1542196015      -13.1368657466       10.2530953365  SOLV      5504            0.0000000000
     16626      5515  TIP3      H2              5.0645696015      -12.1289557466       10.5508653365  SOLV      5504            0.0000000000
     16627      5516  TIP3      OH2             9.8193596015      -15.1654357466       15.8548453365  SOLV      5505            0.0000000000
     16628      5516  TIP3      H1             10.0114896015      -16.0964957466       15.7432953365  SOLV      5505            0.0000000000
     16629      5516  TIP3      H2             10.6769896015      -14.7404857466       15.8443853365  SOLV      5505            0.0000000000
     16630      5517  TIP3      OH2            11.1360796015      -12.3769157466       13.9321153365  SOLV      5506            0.0000000000
     16631      5517  TIP3      H1             10.8545796015      -11.6674557466       13.3544953365  SOLV      5506            0.0000000000
     16632      5517  TIP3      H2             12.0785096015      -12.4496157466       13.7812353365  SOLV      5506            0.0000000000
     16633      5518  TIP3      OH2             1.8879596015      -15.5914657466       15.0056153365  SOLV      5507            0.0000000000
     16634      5518  TIP3      H1              1.1208596015      -16.1239857466       14.7953753365  SOLV      5507            0.0000000000
     16635      5518  TIP3      H2              2.5668596015      -15.9014257466       14.4062453365  SOLV      5507            0.0000000000
     16636      5519  TIP3      OH2             4.6274496015      -20.9636657466       11.0181553365  SOLV      5508            0.0000000000
     16637      5519  TIP3      H1              4.5294096015      -20.0173457466       10.9127753365  SOLV      5508            0.0000000000
     16638      5519  TIP3      H2              3.8850696015      -21.3362857466       10.5425053365  SOLV      5508            0.0000000000
     16639      5520  TIP3      OH2             5.8914996015      -16.6421257466       14.5819953365  SOLV      5509            0.0000000000
     16640      5520  TIP3      H1              5.6560396015      -16.8614557466       15.4834853365  SOLV      5509            0.0000000000
     16641      5520  TIP3      H2              5.1081896015      -16.8490057466       14.0722453365  SOLV      5509            0.0000000000
     16642      5521  TIP3      OH2             8.6071596015      -17.5147757466       13.6573453365  SOLV      5510            0.0000000000
     16643      5521  TIP3      H1              7.6596996015      -17.4828057466       13.7896753365  SOLV      5510            0.0000000000
     16644      5521  TIP3      H2              8.9198296015      -18.1400657466       14.3111653365  SOLV      5510            0.0000000000
     16645      5522  TIP3      OH2            10.2413096015      -18.8806657466       15.6625353365  SOLV      5511            0.0000000000
     16646      5522  TIP3      H1             10.1444896015      -19.8329357466       15.6567253365  SOLV      5511            0.0000000000
     16647      5522  TIP3      H2              9.9196196015      -18.6119857466       16.5230853365  SOLV      5511            0.0000000000
     16648      5523  TIP3      OH2             0.0682396015      -17.6710857466       14.7100853365  SOLV      5512            0.0000000000
     16649      5523  TIP3      H1              0.2799796015      -18.3774757466       14.0998353365  SOLV      5512            0.0000000000
     16650      5523  TIP3      H2             -0.0430103985      -18.1084857466       15.5542053365  SOLV      5512            0.0000000000
     16651      5524  TIP3      OH2             4.8492596015      -21.6699257466       13.6894353365  SOLV      5513            0.0000000000
     16652      5524  TIP3      H1              5.5610996015      -22.3097057466       13.6753453365  SOLV      5513            0.0000000000
     16653      5524  TIP3      H2              4.7482996015      -21.4030957466       12.7757453365  SOLV      5513            0.0000000000
     16654      5525  TIP3      OH2             5.2030096015      -19.9870857466       15.7430653365  SOLV      5514            0.0000000000
     16655      5525  TIP3      H1              5.0712296015      -20.4627057466       14.9229153365  SOLV      5514            0.0000000000
     16656      5525  TIP3      H2              4.6037496015      -19.2427257466       15.6877753365  SOLV      5514            0.0000000000
     16657      5526  TIP3      OH2            -1.6822703985       -8.4676757466       -1.5977246635  SOLV      5515            0.0000000000
     16658      5526  TIP3      H1             -0.7683503985       -8.3887857466       -1.3243346635  SOLV      5515            0.0000000000
     16659      5526  TIP3      H2             -1.6749603985       -9.1547157466       -2.2641646635  SOLV      5515            0.0000000000
     16660      5527  TIP3      OH2            -3.0332103985       -3.0748257466        3.4796653365  SOLV      5516            0.0000000000
     16661      5527  TIP3      H1             -3.6805003985       -3.5366557466        2.9467853365  SOLV      5516            0.0000000000
     16662      5527  TIP3      H2             -2.6787503985       -3.7464957466        4.0622853365  SOLV      5516            0.0000000000
     16663      5528  TIP3      OH2            -2.1632903985       -4.9941257466        5.2842853365  SOLV      5517            0.0000000000
     16664      5528  TIP3      H1             -2.4976103985       -5.8743957466        5.4563053365  SOLV      5517            0.0000000000
     16665      5528  TIP3      H2             -1.9410503985       -4.6486257466        6.1488453365  SOLV      5517            0.0000000000
     16666      5529  TIP3      OH2            15.3851896015       -4.1844857466        8.2647653365  SOLV      5518            0.0000000000
     16667      5529  TIP3      H1             15.3638596015       -3.9996457466        9.2037053365  SOLV      5518            0.0000000000
     16668      5529  TIP3      H2             16.0758096015       -3.6160857466        7.9239053365  SOLV      5518            0.0000000000
     16669      5530  TIP3      OH2            14.9484796015       -4.6173757466       11.1866753365  SOLV      5519            0.0000000000
     16670      5530  TIP3      H1             14.4613496015       -5.3529657466       10.8154153365  SOLV      5519            0.0000000000
     16671      5530  TIP3      H2             15.4977496015       -5.0109857466       11.8646153365  SOLV      5519            0.0000000000
     16672      5531  TIP3      OH2            13.3992096015       -8.8275657466       15.8247053365  SOLV      5520            0.0000000000
     16673      5531  TIP3      H1             12.5333196015       -8.9325957466       16.2189353365  SOLV      5520            0.0000000000
     16674      5531  TIP3      H2             13.7757996015       -8.0692357466       16.2711753365  SOLV      5520            0.0000000000
     16675      5532  TIP3      OH2            14.7001796015      -10.5711957466        1.3389553365  SOLV      5521            0.0000000000
     16676      5532  TIP3      H1             15.5503196015      -10.1501057466        1.4661153365  SOLV      5521            0.0000000000
     16677      5532  TIP3      H2             14.7056896015      -11.3111857466        1.9460953365  SOLV      5521            0.0000000000
     16678      5533  TIP3      OH2            15.0947396015      -12.5174557466        3.1625253365  SOLV      5522            0.0000000000
     16679      5533  TIP3      H1             14.3681996015      -12.9971957466        3.5602853365  SOLV      5522            0.0000000000
     16680      5533  TIP3      H2             15.6760696015      -12.3119857466        3.8946853365  SOLV      5522            0.0000000000
     16681      5534  TIP3      OH2            14.8538596015       -9.7327057466        8.1102853365  SOLV      5523            0.0000000000
     16682      5534  TIP3      H1             15.6872796015      -10.1107057466        7.8296453365  SOLV      5523            0.0000000000
     16683      5534  TIP3      H2             14.9658896015       -8.7895857466        7.9911953365  SOLV      5523            0.0000000000
     16684      5535  TIP3      OH2            13.3400896015       -6.8549557466       10.4171253365  SOLV      5524            0.0000000000
     16685      5535  TIP3      H1             12.6926196015       -6.5298057466       11.0426453365  SOLV      5524            0.0000000000
     16686      5535  TIP3      H2             12.8224896015       -7.2951857466        9.7429553365  SOLV      5524            0.0000000000
     16687      5536  TIP3      OH2            15.3630496015      -12.6166057466       -0.4463446635  SOLV      5525            0.0000000000
     16688      5536  TIP3      H1             14.8411596015      -12.2601957466       -1.1652546635  SOLV      5525            0.0000000000
     16689      5536  TIP3      H2             15.3299696015      -11.9418257466        0.2317453365  SOLV      5525            0.0000000000
     16690      5537  TIP3      OH2            13.7119496015      -15.3770457466       -1.8956346635  SOLV      5526            0.0000000000
     16691      5537  TIP3      H1             13.8083896015      -14.7103457466       -2.5756646635  SOLV      5526            0.0000000000
     16692      5537  TIP3      H2             13.5719096015      -16.1924157466       -2.3770846635  SOLV      5526            0.0000000000
     16693      5538  TIP3      OH2            12.8814196015      -13.9968057466        3.7253953365  SOLV      5527            0.0000000000
     16694      5538  TIP3      H1             12.7312996015      -14.9419457466        3.7051753365  SOLV      5527            0.0000000000
     16695      5538  TIP3      H2             12.5278696015      -13.7156657466        4.5693053365  SOLV      5527            0.0000000000
     16696      5539  TIP3      OH2            -2.0833403985      -11.9185857466        7.7357753365  SOLV      5528            0.0000000000
     16697      5539  TIP3      H1             -1.8990503985      -12.0004157466        6.8000653365  SOLV      5528            0.0000000000
     16698      5539  TIP3      H2             -1.2340503985      -12.0428857466        8.1594153365  SOLV      5528            0.0000000000
     16699      5540  TIP3      OH2            13.7377096015      -12.0264757466       13.3642253365  SOLV      5529            0.0000000000
     16700      5540  TIP3      H1             14.3204396015      -12.7612457466       13.5559453365  SOLV      5529            0.0000000000
     16701      5540  TIP3      H2             14.3016396015      -11.2544457466       13.4108053365  SOLV      5529            0.0000000000
     16702      5541  TIP3      OH2            15.2344196015      -14.1238957466       14.0487653365  SOLV      5530            0.0000000000
     16703      5541  TIP3      H1             14.3710896015      -14.5026857466       13.8832353365  SOLV      5530            0.0000000000
     16704      5541  TIP3      H2             15.8387896015      -14.8624157466       13.9743453365  SOLV      5530            0.0000000000
     16705      5542  TIP3      OH2            12.9593296015      -17.9690657466       -2.7780846635  SOLV      5531            0.0000000000
     16706      5542  TIP3      H1             13.5699096015      -18.3403857466       -2.1412646635  SOLV      5531            0.0000000000
     16707      5542  TIP3      H2             12.1224796015      -18.3903757466       -2.5820846635  SOLV      5531            0.0000000000
     16708      5543  TIP3      OH2            12.5918996015      -16.4142257466        2.1879053365  SOLV      5532            0.0000000000
     16709      5543  TIP3      H1             12.8716096015      -17.3211857466        2.3120753365  SOLV      5532            0.0000000000
     16710      5543  TIP3      H2             13.3510696015      -15.9800757466        1.7988253365  SOLV      5532            0.0000000000
     16711      5544  TIP3      OH2            13.2037296015      -15.8324857466        7.6237953365  SOLV      5533            0.0000000000
     16712      5544  TIP3      H1             14.1365296015      -15.6204957466        7.5893953365  SOLV      5533            0.0000000000
     16713      5544  TIP3      H2             12.9684796015      -15.7312757466        8.5460953365  SOLV      5533            0.0000000000
     16714      5545  TIP3      OH2            13.2329196015      -15.0959557466       10.3997353365  SOLV      5534            0.0000000000
     16715      5545  TIP3      H1             12.3900496015      -14.8279157466       10.7657153365  SOLV      5534            0.0000000000
     16716      5545  TIP3      H2             13.6753496015      -14.2737657466       10.1888453365  SOLV      5534            0.0000000000
     16717      5546  TIP3      OH2            -2.4858603985      -16.6480857466       13.8766553365  SOLV      5535            0.0000000000
     16718      5546  TIP3      H1             -1.5663703985      -16.7702557466       14.1129653365  SOLV      5535            0.0000000000
     16719      5546  TIP3      H2             -2.9354103985      -17.3981157466       14.2660053365  SOLV      5535            0.0000000000
     16720      5547  TIP3      OH2            15.5160796015      -21.1159357466       15.7532353365  SOLV      5536            0.0000000000
     16721      5547  TIP3      H1             15.8657796015      -21.7695857466       15.1477053365  SOLV      5536            0.0000000000
     16722      5547  TIP3      H2             15.6630296015      -20.2785257466       15.3134953365  SOLV      5536            0.0000000000
     16723      5548  TIP3      OH2            -1.2646103985      -18.3359257466        6.7679453365  SOLV      5537            0.0000000000
     16724      5548  TIP3      H1             -0.8194503985      -19.1276757466        7.0699153365  SOLV      5537            0.0000000000
     16725      5548  TIP3      H2             -0.7983103985      -17.6194057466        7.1985053365  SOLV      5537            0.0000000000
     16726      5549  TIP3      OH2            -2.9605803985      -15.3366257466        7.8369653365  SOLV      5538            0.0000000000
     16727      5549  TIP3      H1             -2.4686003985      -15.5575757466        7.0461653365  SOLV      5538            0.0000000000
     16728      5549  TIP3      H2             -2.5984903985      -14.4962857466        8.1179153365  SOLV      5538            0.0000000000
     16729      5550  TIP3      OH2            15.0357996015      -19.0064757466       14.1023653365  SOLV      5539            0.0000000000
     16730      5550  TIP3      H1             14.1183696015      -18.7357657466       14.0667153365  SOLV      5539            0.0000000000
     16731      5550  TIP3      H2             15.1587396015      -19.5416357466       13.3183353365  SOLV      5539            0.0000000000
     16732      5551  TIP3      OH2            15.0719996015      -19.0834857466       -1.2358646635  SOLV      5540            0.0000000000
     16733      5551  TIP3      H1             15.4842596015      -19.8049157466       -1.7110646635  SOLV      5540            0.0000000000
     16734      5551  TIP3      H2             15.7536496015      -18.4140257466       -1.1774346635  SOLV      5540            0.0000000000
     16735      5552  TIP3      OH2            -2.6469303985      -19.0787157466        1.8912053365  SOLV      5541            0.0000000000
     16736      5552  TIP3      H1             -3.5720903985      -18.8700557466        1.7617553365  SOLV      5541            0.0000000000
     16737      5552  TIP3      H2             -2.1929403985      -18.5946357466        1.2014353365  SOLV      5541            0.0000000000
     16738      5553  TIP3      OH2            12.1237896015       -4.0945457466        3.8369453365  SOLV      5542            0.0000000000
     16739      5553  TIP3      H1             12.7760796015       -4.4423357466        3.2288553365  SOLV      5542            0.0000000000
     16740      5553  TIP3      H2             12.6341696015       -3.6062257466        4.4829153365  SOLV      5542            0.0000000000
     16741      5554  TIP3      OH2            -2.6833903985      -20.3408157466       10.2354553365  SOLV      5543            0.0000000000
     16742      5554  TIP3      H1             -3.3483403985      -20.5867857466       10.8785453365  SOLV      5543            0.0000000000
     16743      5554  TIP3      H2             -3.1262603985      -19.7187757466        9.6582553365  SOLV      5543            0.0000000000
     16744      5555  TIP3      OH2            -0.4914603985       -7.1654057466       14.3800353365  SOLV      5544            0.0000000000
     16745      5555  TIP3      H1             -1.3122103985       -6.9907557466       13.9195053365  SOLV      5544            0.0000000000
     16746      5555  TIP3      H2             -0.7436803985       -7.2389357466       15.3004753365  SOLV      5544            0.0000000000
     16747      5556  TIP3      OH2             2.4628296015       -6.1912857466       10.6384353365  SOLV      5545            0.0000000000
     16748      5556  TIP3      H1              2.0379396015       -5.3814357466       10.3558953365  SOLV      5545            0.0000000000
     16749      5556  TIP3      H2              3.3671096015       -6.1058757466       10.3364153365  SOLV      5545            0.0000000000
     16750      5557  TIP3      OH2             6.7739696015       -4.7922857466       13.5978053365  SOLV      5546            0.0000000000
     16751      5557  TIP3      H1              6.9587196015       -5.1256757466       14.4758353365  SOLV      5546            0.0000000000
     16752      5557  TIP3      H2              7.6204196015       -4.4824257466       13.2757253365  SOLV      5546            0.0000000000
     16753      5558  TIP3      OH2             9.1190096015       -3.5063957466       12.8419453365  SOLV      5547            0.0000000000
     16754      5558  TIP3      H1              9.7958996015       -4.1391657466       12.6018653365  SOLV      5547            0.0000000000
     16755      5558  TIP3      H2              9.4408896015       -3.1053457466       13.6492753365  SOLV      5547            0.0000000000
     16756      5559  TIP3      OH2            14.0363896015      -20.9168457466       11.9214453365  SOLV      5548            0.0000000000
     16757      5559  TIP3      H1             13.2237396015      -20.5918157466       11.5339153365  SOLV      5548            0.0000000000
     16758      5559  TIP3      H2             14.2692396015      -21.6769957466       11.3883553365  SOLV      5548            0.0000000000
     16759      5560  TIP3      OH2            -0.1355003985       -2.9348957466       10.6859653365  SOLV      5549            0.0000000000
     16760      5560  TIP3      H1             -0.8558603985       -2.4947957466       10.2347353365  SOLV      5549            0.0000000000
     16761      5560  TIP3      H2             -0.5011003985       -3.1854257466       11.5343653365  SOLV      5549            0.0000000000
     16762      5561  TIP3      OH2             2.3317596015       -3.3345057466        9.7156853365  SOLV      5550            0.0000000000
     16763      5561  TIP3      H1              1.4669796015       -3.2626557466       10.1196953365  SOLV      5550            0.0000000000
     16764      5561  TIP3      H2              2.2766596015       -2.7877757466        8.9319353365  SOLV      5550            0.0000000000
     16765      5562  TIP3      OH2             7.0423196015       -3.4466157466        8.8912853365  SOLV      5551            0.0000000000
     16766      5562  TIP3      H1              6.5857196015       -2.9176457466        8.2371253365  SOLV      5551            0.0000000000
     16767      5562  TIP3      H2              7.2051196015       -2.8434757466        9.6165153365  SOLV      5551            0.0000000000
     16768      5563  TIP3      OH2             9.3699496015       -4.5686557466        9.8363153365  SOLV      5552            0.0000000000
     16769      5563  TIP3      H1              8.4653196015       -4.4036357466        9.5705253365  SOLV      5552            0.0000000000
     16770      5563  TIP3      H2              9.7988096015       -3.7154357466        9.7706553365  SOLV      5552            0.0000000000
     16771      5564  TIP3      OH2            11.9741396015       -2.9987457466       10.1310953365  SOLV      5553            0.0000000000
     16772      5564  TIP3      H1             11.7923396015       -2.0828557466        9.9205853365  SOLV      5553            0.0000000000
     16773      5564  TIP3      H2             12.1509196015       -3.4090357466        9.2845553365  SOLV      5553            0.0000000000
     16774      5565  TIP3      OH2            -0.7206903985       -4.3116457466        7.5961453365  SOLV      5554            0.0000000000
     16775      5565  TIP3      H1             -0.7390903985       -4.7371357466        8.4533753365  SOLV      5554            0.0000000000
     16776      5565  TIP3      H2              0.0840996015       -4.6301457466        7.1873653365  SOLV      5554            0.0000000000
     16777      5566  TIP3      OH2             1.4206196015       -5.6017757466        6.2511353365  SOLV      5555            0.0000000000
     16778      5566  TIP3      H1              1.2016896015       -6.5180357466        6.4207353365  SOLV      5555            0.0000000000
     16779      5566  TIP3      H2              2.2448396015       -5.4617357466        6.7172753365  SOLV      5555            0.0000000000
     16780      5567  TIP3      OH2             3.9578696015       -5.1318457466        7.0999353365  SOLV      5556            0.0000000000
     16781      5567  TIP3      H1              4.1704396015       -6.0199457466        6.8130253365  SOLV      5556            0.0000000000
     16782      5567  TIP3      H2              4.0223796015       -5.1660757466        8.0543353365  SOLV      5556            0.0000000000
     16783      5568  TIP3      OH2             7.4662396015      -19.4677857466        6.2442653365  SOLV      5557            0.0000000000
     16784      5568  TIP3      H1              6.7919196015      -20.0972257466        6.4998453365  SOLV      5557            0.0000000000
     16785      5568  TIP3      H2              8.0301596015      -19.9518957466        5.6410553365  SOLV      5557            0.0000000000
     16786      5569  TIP3      OH2            12.6089596015      -21.3603857466        6.3569753365  SOLV      5558            0.0000000000
     16787      5569  TIP3      H1             13.2127196015      -20.8128457466        5.8550753365  SOLV      5558            0.0000000000
     16788      5569  TIP3      H2             11.7391596015      -21.0413457466        6.1163853365  SOLV      5558            0.0000000000
     16789      5570  TIP3      OH2            14.3359996015      -20.2215157466        4.6900653365  SOLV      5559            0.0000000000
     16790      5570  TIP3      H1             14.9477496015      -20.7359457466        4.1634253365  SOLV      5559            0.0000000000
     16791      5570  TIP3      H2             14.7183396015      -19.3443057466        4.7135053365  SOLV      5559            0.0000000000
     16792      5571  TIP3      OH2            -0.2070103985      -20.8337557466        4.0662553365  SOLV      5560            0.0000000000
     16793      5571  TIP3      H1             -0.9840303985      -21.0682657466        3.5588453365  SOLV      5560            0.0000000000
     16794      5571  TIP3      H2              0.3233496015      -21.6305457466        4.0750553365  SOLV      5560            0.0000000000
     16795      5572  TIP3      OH2            -1.3706703985      -21.0359457466       -0.1301346635  SOLV      5561            0.0000000000
     16796      5572  TIP3      H1             -0.9316003985      -20.4248957466       -0.7217846635  SOLV      5561            0.0000000000
     16797      5572  TIP3      H2             -2.0044303985      -20.4975357466        0.3438653365  SOLV      5561            0.0000000000
     16798      5573  TIP3      OH2             4.3722496015      -20.9070457466        3.8795653365  SOLV      5562            0.0000000000
     16799      5573  TIP3      H1              5.2465896015      -20.5186157466        3.8499953365  SOLV      5562            0.0000000000
     16800      5573  TIP3      H2              4.2363296015      -21.1222657466        4.8022853365  SOLV      5562            0.0000000000
     16801      5574  TIP3      OH2             9.9290896015      -20.8770657466        5.5287353365  SOLV      5563            0.0000000000
     16802      5574  TIP3      H1             10.0052496015      -20.7819057466        4.5793353365  SOLV      5563            0.0000000000
     16803      5574  TIP3      H2              9.6540096015      -21.7847757466        5.6576453365  SOLV      5563            0.0000000000
     16804      5575  TIP3      OH2            -1.4697203985       -5.0877257466        0.7673753365  SOLV      5564            0.0000000000
     16805      5575  TIP3      H1             -2.1547303985       -5.1258357466        0.0998853365  SOLV      5564            0.0000000000
     16806      5575  TIP3      H2             -1.4660003985       -4.1749657466        1.0555853365  SOLV      5564            0.0000000000
     16807      5576  TIP3      OH2             0.4902396015      -19.1197957466       -1.6877246635  SOLV      5565            0.0000000000
     16808      5576  TIP3      H1              0.9815796015      -19.7495557466       -2.2151746635  SOLV      5565            0.0000000000
     16809      5576  TIP3      H2              1.1138696015      -18.8238557466       -1.0246046635  SOLV      5565            0.0000000000
     16810      5577  TIP3      OH2             5.5162496015      -18.8266457466        0.7693253365  SOLV      5566            0.0000000000
     16811      5577  TIP3      H1              5.6943796015      -19.4733257466        1.4521853365  SOLV      5566            0.0000000000
     16812      5577  TIP3      H2              5.4628696015      -17.9928757466        1.2364353365  SOLV      5566            0.0000000000
     16813      5578  TIP3      OH2            14.1035896015       -4.3152057466        1.8441053365  SOLV      5567            0.0000000000
     16814      5578  TIP3      H1             13.9092996015       -5.0629957466        1.2790653365  SOLV      5567            0.0000000000
     16815      5578  TIP3      H2             14.0645996015       -3.5571957466        1.2608953365  SOLV      5567            0.0000000000
     16816      5579  TIP3      OH2            -0.2492103985      -20.3195657466       13.5838753365  SOLV      5568            0.0000000000
     16817      5579  TIP3      H1             -0.6153903985      -21.0853057466       14.0263453365  SOLV      5568            0.0000000000
     16818      5579  TIP3      H2              0.6636396015      -20.2905457466       13.8703853365  SOLV      5568            0.0000000000
     16819      5580  TIP3      OH2             1.7238696015      -20.9691257466       15.1195853365  SOLV      5569            0.0000000000
     16820      5580  TIP3      H1              2.6222296015      -21.2431057466       14.9349253365  SOLV      5569            0.0000000000
     16821      5580  TIP3      H2              1.3371796015      -21.7115257466       15.5838453365  SOLV      5569            0.0000000000
     16822      5581  TIP3      OH2             0.3483996015       -4.1676457466       -2.2074146635  SOLV      5570            0.0000000000
     16823      5581  TIP3      H1              0.0808596015       -3.8813557466       -1.3341046635  SOLV      5570            0.0000000000
     16824      5581  TIP3      H2              1.1196596015       -4.7137257466       -2.0551646635  SOLV      5570            0.0000000000
     16825      5582  TIP3      OH2            10.1450996015      -21.6365957466       15.3018653365  SOLV      5571            0.0000000000
     16826      5582  TIP3      H1             10.2218196015      -22.0625257466       16.1556353365  SOLV      5571            0.0000000000
     16827      5582  TIP3      H2             11.0387596015      -21.6231257466       14.9592153365  SOLV      5571            0.0000000000
     16828      5583  TIP3      OH2            13.3212096015       -5.5639657466       13.9942853365  SOLV      5572            0.0000000000
     16829      5583  TIP3      H1             12.5393996015       -5.7501657466       13.4743453365  SOLV      5572            0.0000000000
     16830      5583  TIP3      H2             13.2491996015       -4.6345357466       14.2115353365  SOLV      5572            0.0000000000
     16831      5584  TIP3      OH2            27.7272496015      -11.6775257466        4.0250053365  SOLV      5573            0.0000000000
     16832      5584  TIP3      H1             27.8163596015      -10.7337057466        3.8927153365  SOLV      5573            0.0000000000
     16833      5584  TIP3      H2             27.0890096015      -11.9528857466        3.3669453365  SOLV      5573            0.0000000000
     16834      5585  TIP3      OH2            26.6603796015      -12.4224557466        7.4438253365  SOLV      5574            0.0000000000
     16835      5585  TIP3      H1             26.6221296015      -13.0688257466        8.1487853365  SOLV      5574            0.0000000000
     16836      5585  TIP3      H2             26.3380296015      -12.8890157466        6.6726953365  SOLV      5574            0.0000000000
     16837      5586  TIP3      OH2            19.0288796015      -12.8082457466        9.0368153365  SOLV      5575            0.0000000000
     16838      5586  TIP3      H1             19.0700896015      -13.4339157466        9.7600553365  SOLV      5575            0.0000000000
     16839      5586  TIP3      H2             19.7316496015      -12.1843857466        9.2188553365  SOLV      5575            0.0000000000
     16840      5587  TIP3      OH2            30.3663996015       -9.4834157466        5.7453353365  SOLV      5576            0.0000000000
     16841      5587  TIP3      H1             29.9256696015      -10.2038157466        6.1958953365  SOLV      5576            0.0000000000
     16842      5587  TIP3      H2             30.3533696015       -8.7626957466        6.3751053365  SOLV      5576            0.0000000000
     16843      5588  TIP3      OH2            19.9521896015       -8.3583557466        7.5717253365  SOLV      5577            0.0000000000
     16844      5588  TIP3      H1             19.5827096015       -9.1603057466        7.2021553365  SOLV      5577            0.0000000000
     16845      5588  TIP3      H2             20.8932996015       -8.5268657466        7.6180653365  SOLV      5577            0.0000000000
     16846      5589  TIP3      OH2            16.5622396015      -14.6980957466        2.9646053365  SOLV      5578            0.0000000000
     16847      5589  TIP3      H1             16.1145796015      -13.8522257466        2.9462553365  SOLV      5578            0.0000000000
     16848      5589  TIP3      H2             16.0013596015      -15.2776757466        2.4491153365  SOLV      5578            0.0000000000
     16849      5590  TIP3      OH2            17.2728496015      -12.5361357466        5.0904053365  SOLV      5579            0.0000000000
     16850      5590  TIP3      H1             17.4861996015      -13.3059757466        5.6177053365  SOLV      5579            0.0000000000
     16851      5590  TIP3      H2             18.0106096015      -12.4464657466        4.4871653365  SOLV      5579            0.0000000000
     16852      5591  TIP3      OH2            27.4779496015       -4.3792457466        5.9573753365  SOLV      5580            0.0000000000
     16853      5591  TIP3      H1             28.0975896015       -5.0557757466        5.6842953365  SOLV      5580            0.0000000000
     16854      5591  TIP3      H2             27.2696896015       -4.5971657466        6.8658653365  SOLV      5580            0.0000000000
     16855      5592  TIP3      OH2            25.0498196015       -9.9903157466        7.8499253365  SOLV      5581            0.0000000000
     16856      5592  TIP3      H1             25.3536096015      -10.6761757466        7.2553353365  SOLV      5581            0.0000000000
     16857      5592  TIP3      H2             25.7712196015       -9.8714457466        8.4677253365  SOLV      5581            0.0000000000
     16858      5593  TIP3      OH2            28.1905196015      -15.5960757466        8.1774053365  SOLV      5582            0.0000000000
     16859      5593  TIP3      H1             28.3331096015      -16.5423757466        8.1975653365  SOLV      5582            0.0000000000
     16860      5593  TIP3      H2             28.0844196015      -15.3890957466        7.2488953365  SOLV      5582            0.0000000000
     16861      5594  TIP3      OH2            21.3453496015      -17.4944357466        5.4498853365  SOLV      5583            0.0000000000
     16862      5594  TIP3      H1             21.3884596015      -16.6345857466        5.0315153365  SOLV      5583            0.0000000000
     16863      5594  TIP3      H2             20.8877596015      -18.0469657466        4.8162053365  SOLV      5583            0.0000000000
     16864      5595  TIP3      OH2            29.0676196015      -17.3638757466        3.8507153365  SOLV      5584            0.0000000000
     16865      5595  TIP3      H1             29.7140496015      -17.6925557466        4.4754753365  SOLV      5584            0.0000000000
     16866      5595  TIP3      H2             29.5775596015      -16.8459757466        3.2278553365  SOLV      5584            0.0000000000
     16867      5596  TIP3      OH2            17.9654996015      -15.0978557466        6.2120253365  SOLV      5585            0.0000000000
     16868      5596  TIP3      H1             18.6191596015      -15.6476857466        6.6440353365  SOLV      5585            0.0000000000
     16869      5596  TIP3      H2             17.9894296015      -15.3719557466        5.2952253365  SOLV      5585            0.0000000000
     16870      5597  TIP3      OH2            23.1219496015      -13.5477257466        5.4271753365  SOLV      5586            0.0000000000
     16871      5597  TIP3      H1             23.7380496015      -14.0741857466        5.9365753365  SOLV      5586            0.0000000000
     16872      5597  TIP3      H2             22.5358296015      -14.1878557466        5.0235353365  SOLV      5586            0.0000000000
     16873      5598  TIP3      OH2            20.1555396015      -18.5765957466        9.5239653365  SOLV      5587            0.0000000000
     16874      5598  TIP3      H1             19.9367096015      -18.0465357466        8.7575653365  SOLV      5587            0.0000000000
     16875      5598  TIP3      H2             19.4876296015      -18.3500457466       10.1711053365  SOLV      5587            0.0000000000
     16876      5599  TIP3      OH2            27.5245196015       -9.0764857466        3.0678753365  SOLV      5588            0.0000000000
     16877      5599  TIP3      H1             27.2290296015       -9.3992557466        2.2165653365  SOLV      5588            0.0000000000
     16878      5599  TIP3      H2             27.2002996015       -8.1768157466        3.1091353365  SOLV      5588            0.0000000000
     16879      5600  TIP3      OH2            22.7246796015      -10.9010257466        9.8113353365  SOLV      5589            0.0000000000
     16880      5600  TIP3      H1             21.9845896015      -10.3028757466        9.9148553365  SOLV      5589            0.0000000000
     16881      5600  TIP3      H2             23.4386296015      -10.3470657466        9.4956953365  SOLV      5589            0.0000000000
     16882      5601  TIP3      OH2            30.8314596015      -18.0729457466        5.8313053365  SOLV      5590            0.0000000000
     16883      5601  TIP3      H1             30.6162596015      -18.8386057466        6.3639053365  SOLV      5590            0.0000000000
     16884      5601  TIP3      H2             31.4871996015      -17.6004857466        6.3441553365  SOLV      5590            0.0000000000
     16885      5602  TIP3      OH2            19.7492696015      -16.6844157466        7.4761853365  SOLV      5591            0.0000000000
     16886      5602  TIP3      H1             20.3628996015      -16.0516557466        7.8494253365  SOLV      5591            0.0000000000
     16887      5602  TIP3      H2             20.2613396015      -17.1569157466        6.8198753365  SOLV      5591            0.0000000000
     16888      5603  TIP3      OH2            21.1321096015       -8.9367257466       10.5984853365  SOLV      5592            0.0000000000
     16889      5603  TIP3      H1             21.1268696015       -8.0573757466       10.2204153365  SOLV      5592            0.0000000000
     16890      5603  TIP3      H2             20.2785196015       -9.0203157466       11.0234753365  SOLV      5592            0.0000000000
     16891      5604  TIP3      OH2            17.2531996015       -9.2659357466        1.3804153365  SOLV      5593            0.0000000000
     16892      5604  TIP3      H1             16.9812896015       -9.0368357466        0.4917053365  SOLV      5593            0.0000000000
     16893      5604  TIP3      H2             17.2987696015       -8.4280557466        1.8409453365  SOLV      5593            0.0000000000
     16894      5605  TIP3      OH2            30.8781696015       -7.6443457466        8.0932653365  SOLV      5594            0.0000000000
     16895      5605  TIP3      H1             29.9365396015       -7.5859557466        8.2549553365  SOLV      5594            0.0000000000
     16896      5605  TIP3      H2             31.1547796015       -6.7382957466        7.9562353365  SOLV      5594            0.0000000000
     16897      5606  TIP3      OH2            31.1788696015      -19.3578157466        9.5106553365  SOLV      5595            0.0000000000
     16898      5606  TIP3      H1             30.4427896015      -18.7471057466        9.4727853365  SOLV      5595            0.0000000000
     16899      5606  TIP3      H2             31.8622696015      -18.9429157466        8.9842953365  SOLV      5595            0.0000000000
     16900      5607  TIP3      OH2            24.1820096015      -21.2710857466        6.9764553365  SOLV      5596            0.0000000000
     16901      5607  TIP3      H1             24.0644296015      -22.2194857466        6.9222853365  SOLV      5596            0.0000000000
     16902      5607  TIP3      H2             23.3270196015      -20.9384757466        7.2495653365  SOLV      5596            0.0000000000
     16903      5608  TIP3      OH2            29.1302896015       -5.8629957466        4.7184253365  SOLV      5597            0.0000000000
     16904      5608  TIP3      H1             29.5555196015       -6.5702057466        4.2333853365  SOLV      5597            0.0000000000
     16905      5608  TIP3      H2             29.4472896015       -5.0617257466        4.3016453365  SOLV      5597            0.0000000000
     16906      5609  TIP3      OH2            30.2899396015       -7.9621457466        3.2270853365  SOLV      5598            0.0000000000
     16907      5609  TIP3      H1             30.0324196015       -8.6521357466        2.6156753365  SOLV      5598            0.0000000000
     16908      5609  TIP3      H2             30.3610196015       -8.4050257466        4.0726753365  SOLV      5598            0.0000000000
     16909      5610  TIP3      OH2            31.9759596015       -9.3954757466       11.7044353365  SOLV      5599            0.0000000000
     16910      5610  TIP3      H1             32.1155896015       -9.9872257466       10.9651353365  SOLV      5599            0.0000000000
     16911      5610  TIP3      H2             32.1432396015       -8.5228857466       11.3483153365  SOLV      5599            0.0000000000
     16912      5611  TIP3      OH2            26.4484996015      -12.4335257466        1.4770353365  SOLV      5600            0.0000000000
     16913      5611  TIP3      H1             25.7370496015      -11.8985557466        1.1250853365  SOLV      5600            0.0000000000
     16914      5611  TIP3      H2             27.1394596015      -12.3783157466        0.8169253365  SOLV      5600            0.0000000000
     16915      5612  TIP3      OH2            26.5024196015      -13.9760957466       -1.4844646635  SOLV      5601            0.0000000000
     16916      5612  TIP3      H1             27.2034096015      -13.9534057466       -0.8330646635  SOLV      5601            0.0000000000
     16917      5612  TIP3      H2             26.8047096015      -14.6041257466       -2.1405346635  SOLV      5601            0.0000000000
     16918      5613  TIP3      OH2            33.8178896015      -13.0556757466        9.7704753365  SOLV      5602            0.0000000000
     16919      5613  TIP3      H1             33.1652996015      -12.3611157466        9.8595653365  SOLV      5602            0.0000000000
     16920      5613  TIP3      H2             34.2829196015      -12.8455857466        8.9606353365  SOLV      5602            0.0000000000
     16921      5614  TIP3      OH2            29.8542696015      -12.2241957466        2.4286253365  SOLV      5603            0.0000000000
     16922      5614  TIP3      H1             29.1223696015      -11.9958257466        3.0016853365  SOLV      5603            0.0000000000
     16923      5614  TIP3      H2             30.3014896015      -12.9379257466        2.8833753365  SOLV      5603            0.0000000000
     16924      5615  TIP3      OH2            29.7516196015      -14.0499357466       11.4963253365  SOLV      5604            0.0000000000
     16925      5615  TIP3      H1             29.8315296015      -13.2864957466       12.0681753365  SOLV      5604            0.0000000000
     16926      5615  TIP3      H2             29.1503896015      -13.7706957466       10.8058353365  SOLV      5604            0.0000000000
     16927      5616  TIP3      OH2            21.4996396015      -11.5935757466        4.3111253365  SOLV      5605            0.0000000000
     16928      5616  TIP3      H1             21.1691596015      -11.9642357466        3.4928253365  SOLV      5605            0.0000000000
     16929      5616  TIP3      H2             22.0880496015      -12.2641757466        4.6579553365  SOLV      5605            0.0000000000
     16930      5617  TIP3      OH2            22.8663896015       -8.1655157466        6.9923453365  SOLV      5606            0.0000000000
     16931      5617  TIP3      H1             22.7715196015       -8.7442057466        6.2358053365  SOLV      5606            0.0000000000
     16932      5617  TIP3      H2             23.5957496015       -8.5369457466        7.4886253365  SOLV      5606            0.0000000000
     16933      5618  TIP3      OH2            21.8661896015      -12.8250157466        7.9446253365  SOLV      5607            0.0000000000
     16934      5618  TIP3      H1             22.4314396015      -12.7035957466        7.1817453365  SOLV      5607            0.0000000000
     16935      5618  TIP3      H2             22.1850796015      -12.1875157466        8.5834753365  SOLV      5607            0.0000000000
     16936      5619  TIP3      OH2            28.1754096015       -7.3218257466        8.6786753365  SOLV      5608            0.0000000000
     16937      5619  TIP3      H1             27.9350696015       -6.6595157466        9.3265953365  SOLV      5608            0.0000000000
     16938      5619  TIP3      H2             27.9772296015       -8.1563057466        9.1036353365  SOLV      5608            0.0000000000
     16939      5620  TIP3      OH2            22.7462596015       -8.4257457466       12.6618153365  SOLV      5609            0.0000000000
     16940      5620  TIP3      H1             22.4350096015       -7.6434257466       13.1171353365  SOLV      5609            0.0000000000
     16941      5620  TIP3      H2             22.0962796015       -8.5788357466       11.9760153365  SOLV      5609            0.0000000000
     16942      5621  TIP3      OH2            28.7252196015      -13.0619057466        0.1137453365  SOLV      5610            0.0000000000
     16943      5621  TIP3      H1             29.3047696015      -12.9118757466        0.8606353365  SOLV      5610            0.0000000000
     16944      5621  TIP3      H2             29.1392196015      -12.5911657466       -0.6096146635  SOLV      5610            0.0000000000
     16945      5622  TIP3      OH2            19.6662496015      -12.2276357466       11.8903853365  SOLV      5611            0.0000000000
     16946      5622  TIP3      H1             19.7365696015      -11.5769557466       12.5888853365  SOLV      5611            0.0000000000
     16947      5622  TIP3      H2             18.7754696015      -12.1248857466       11.5554753365  SOLV      5611            0.0000000000
     16948      5623  TIP3      OH2            26.4517096015       -6.3250557466        3.5490553365  SOLV      5612            0.0000000000
     16949      5623  TIP3      H1             26.9254696015       -6.0294257466        4.3264753365  SOLV      5612            0.0000000000
     16950      5623  TIP3      H2             25.8886396015       -5.5868957466        3.3160153365  SOLV      5612            0.0000000000
     16951      5624  TIP3      OH2            20.9858496015       -6.3542457466       13.4251953365  SOLV      5613            0.0000000000
     16952      5624  TIP3      H1             20.9933796015       -6.4902757466       12.4777453365  SOLV      5613            0.0000000000
     16953      5624  TIP3      H2             20.0698896015       -6.4714357466       13.6771953365  SOLV      5613            0.0000000000
     16954      5625  TIP3      OH2            20.4899096015      -12.5241457466        1.9004053365  SOLV      5614            0.0000000000
     16955      5625  TIP3      H1             20.1980396015      -11.7559757466        1.4095353365  SOLV      5614            0.0000000000
     16956      5625  TIP3      H2             19.8154296015      -13.1835257466        1.7375453365  SOLV      5614            0.0000000000
     16957      5626  TIP3      OH2            33.6131996015       -6.9456257466       -1.6968946635  SOLV      5615            0.0000000000
     16958      5626  TIP3      H1             33.6865496015       -6.0066057466       -1.5263646635  SOLV      5615            0.0000000000
     16959      5626  TIP3      H2             34.5187096015       -7.2507657466       -1.7531646635  SOLV      5615            0.0000000000
     16960      5627  TIP3      OH2            16.5829196015      -10.1612257466       10.7153853365  SOLV      5616            0.0000000000
     16961      5627  TIP3      H1             16.0817596015      -10.1892857466        9.9003553365  SOLV      5616            0.0000000000
     16962      5627  TIP3      H2             16.5882896015      -11.0669057466       11.0251153365  SOLV      5616            0.0000000000
     16963      5628  TIP3      OH2            16.3331896015       -7.3808457466        7.5994053365  SOLV      5617            0.0000000000
     16964      5628  TIP3      H1             17.2792496015       -7.5251457466        7.5803553365  SOLV      5617            0.0000000000
     16965      5628  TIP3      H2             16.2208196015       -6.5965657466        8.1365253365  SOLV      5617            0.0000000000
     16966      5629  TIP3      OH2            34.5310396015       -6.7148757466       13.2817753365  SOLV      5618            0.0000000000
     16967      5629  TIP3      H1             34.4817196015       -7.6700657466       13.2445353365  SOLV      5618            0.0000000000
     16968      5629  TIP3      H2             33.7042696015       -6.4473457466       13.6831553365  SOLV      5618            0.0000000000
     16969      5630  TIP3      OH2            25.5094396015       -7.1409557466       12.1579153365  SOLV      5619            0.0000000000
     16970      5630  TIP3      H1             25.5968996015       -6.3144957466       12.6328253365  SOLV      5619            0.0000000000
     16971      5630  TIP3      H2             24.6459496015       -7.4705757466       12.4068453365  SOLV      5619            0.0000000000
     16972      5631  TIP3      OH2            25.9240196015       -3.3685857466        1.9639753365  SOLV      5620            0.0000000000
     16973      5631  TIP3      H1             25.8486196015       -3.4898657466        1.0174953365  SOLV      5620            0.0000000000
     16974      5631  TIP3      H2             25.9568896015       -2.4193157466        2.0824353365  SOLV      5620            0.0000000000
     16975      5632  TIP3      OH2            19.5773996015       -4.5798857466        3.7448753365  SOLV      5621            0.0000000000
     16976      5632  TIP3      H1             19.7294396015       -4.9278457466        4.6235253365  SOLV      5621            0.0000000000
     16977      5632  TIP3      H2             18.7264396015       -4.9361557466        3.4895953365  SOLV      5621            0.0000000000
     16978      5633  TIP3      OH2            29.0256196015       -4.2145657466       -1.0337846635  SOLV      5622            0.0000000000
     16979      5633  TIP3      H1             29.4004596015       -4.9589557466       -1.5045246635  SOLV      5622            0.0000000000
     16980      5633  TIP3      H2             29.0299896015       -4.4845057466       -0.1154546635  SOLV      5622            0.0000000000
     16981      5634  TIP3      OH2            28.6944296015       -4.2888557466        1.7154353365  SOLV      5623            0.0000000000
     16982      5634  TIP3      H1             27.7594096015       -4.1886657466        1.8941353365  SOLV      5623            0.0000000000
     16983      5634  TIP3      H2             28.9746196015       -4.9982557466        2.2937553365  SOLV      5623            0.0000000000
     16984      5635  TIP3      OH2            31.6830196015      -15.2216257466       13.7619953365  SOLV      5624            0.0000000000
     16985      5635  TIP3      H1             31.2756996015      -14.7410657466       13.0413253365  SOLV      5624            0.0000000000
     16986      5635  TIP3      H2             31.7235896015      -16.1270257466       13.4540753365  SOLV      5624            0.0000000000
     16987      5636  TIP3      OH2            18.8319696015       -8.8376857466       11.7586653365  SOLV      5625            0.0000000000
     16988      5636  TIP3      H1             19.0480996015       -9.1991257466       12.6182453365  SOLV      5625            0.0000000000
     16989      5636  TIP3      H2             17.9764396015       -9.2123057466       11.5490153365  SOLV      5625            0.0000000000
     16990      5637  TIP3      OH2            21.4507696015      -20.3676357466        7.7540853365  SOLV      5626            0.0000000000
     16991      5637  TIP3      H1             20.5891396015      -20.4548157466        7.3463753365  SOLV      5626            0.0000000000
     16992      5637  TIP3      H2             21.4283396015      -19.5116257466        8.1818453365  SOLV      5626            0.0000000000
     16993      5638  TIP3      OH2            26.1135496015      -20.6455957466       11.1287853365  SOLV      5627            0.0000000000
     16994      5638  TIP3      H1             26.5338596015      -21.0608857466       11.8818453365  SOLV      5627            0.0000000000
     16995      5638  TIP3      H2             25.1805096015      -20.8242657466       11.2459853365  SOLV      5627            0.0000000000
     16996      5639  TIP3      OH2            29.4400396015      -16.8900757466       11.9822353365  SOLV      5628            0.0000000000
     16997      5639  TIP3      H1             28.9259896015      -17.0158557466       12.7798353365  SOLV      5628            0.0000000000
     16998      5639  TIP3      H2             29.2845096015      -15.9777657466       11.7378553365  SOLV      5628            0.0000000000
     16999      5640  TIP3      OH2            30.2025296015      -12.0290757466       -2.2564646635  SOLV      5629            0.0000000000
     17000      5640  TIP3      H1             30.2446096015      -12.2516857466       -3.1864646635  SOLV      5629            0.0000000000
     17001      5640  TIP3      H2             31.0517396015      -11.6303657466       -2.0664746635  SOLV      5629            0.0000000000
     17002      5641  TIP3      OH2            25.7752796015      -18.1532557466       -1.5861346635  SOLV      5630            0.0000000000
     17003      5641  TIP3      H1             25.5217596015      -18.1340957466       -0.6633246635  SOLV      5630            0.0000000000
     17004      5641  TIP3      H2             25.5184896015      -19.0247157466       -1.8875146635  SOLV      5630            0.0000000000
     17005      5642  TIP3      OH2            21.5417796015      -15.4021857466        8.8491053365  SOLV      5631            0.0000000000
     17006      5642  TIP3      H1             20.8999896015      -15.4424557466        9.5581153365  SOLV      5631            0.0000000000
     17007      5642  TIP3      H2             21.5789796015      -14.4757157466        8.6114053365  SOLV      5631            0.0000000000
     17008      5643  TIP3      OH2            21.5386896015      -15.1811757466        3.7611053365  SOLV      5632            0.0000000000
     17009      5643  TIP3      H1             20.6459796015      -15.5215657466        3.7024853365  SOLV      5632            0.0000000000
     17010      5643  TIP3      H2             21.9893496015      -15.5580857466        3.0054253365  SOLV      5632            0.0000000000
     17011      5644  TIP3      OH2            27.0742396015      -14.7651457466        2.5781853365  SOLV      5633            0.0000000000
     17012      5644  TIP3      H1             26.6652696015      -13.9502857466        2.2866653365  SOLV      5633            0.0000000000
     17013      5644  TIP3      H2             27.7948596015      -14.9051357466        1.9638953365  SOLV      5633            0.0000000000
     17014      5645  TIP3      OH2            26.1763996015      -14.5895057466       14.0662553365  SOLV      5634            0.0000000000
     17015      5645  TIP3      H1             25.6137796015      -15.2943457466       14.3870353365  SOLV      5634            0.0000000000
     17016      5645  TIP3      H2             27.0027396015      -14.7103157466       14.5340153365  SOLV      5634            0.0000000000
     17017      5646  TIP3      OH2            28.0790096015      -15.3191057466        5.3921553365  SOLV      5635            0.0000000000
     17018      5646  TIP3      H1             27.8834596015      -14.7134257466        4.6772153365  SOLV      5635            0.0000000000
     17019      5646  TIP3      H2             28.2602696015      -16.1525857466        4.9577853365  SOLV      5635            0.0000000000
     17020      5647  TIP3      OH2            19.2918296015      -15.0818357466       10.7163053365  SOLV      5636            0.0000000000
     17021      5647  TIP3      H1             19.2537696015      -14.6816757466       11.5850153365  SOLV      5636            0.0000000000
     17022      5647  TIP3      H2             18.8009396015      -15.8985957466       10.8065953365  SOLV      5636            0.0000000000
     17023      5648  TIP3      OH2            22.6575696015      -17.7076057466       -2.4850946635  SOLV      5637            0.0000000000
     17024      5648  TIP3      H1             22.2266396015      -18.1525957466       -1.7553546635  SOLV      5637            0.0000000000
     17025      5648  TIP3      H2             21.9394396015      -17.3359757466       -2.9973446635  SOLV      5637            0.0000000000
     17026      5649  TIP3      OH2            15.8999096015      -17.9656557466        4.5667753365  SOLV      5638            0.0000000000
     17027      5649  TIP3      H1             16.5306796015      -17.9944457466        5.2861653365  SOLV      5638            0.0000000000
     17028      5649  TIP3      H2             16.3493396015      -18.3907857466        3.8363653365  SOLV      5638            0.0000000000
     17029      5650  TIP3      OH2            17.1741196015      -17.2194557466       -0.0091846635  SOLV      5639            0.0000000000
     17030      5650  TIP3      H1             17.6482896015      -16.6284657466       -0.5940946635  SOLV      5639            0.0000000000
     17031      5650  TIP3      H2             16.4567596015      -16.6891657466        0.3378253365  SOLV      5639            0.0000000000
     17032      5651  TIP3      OH2            27.3429296015      -13.6809757466       10.0633953365  SOLV      5640            0.0000000000
     17033      5651  TIP3      H1             27.6664096015      -14.3120057466        9.4204453365  SOLV      5640            0.0000000000
     17034      5651  TIP3      H2             26.9028596015      -14.2157557466       10.7241353365  SOLV      5640            0.0000000000
     17035      5652  TIP3      OH2            24.1202196015      -17.7534257466        4.8475153365  SOLV      5641            0.0000000000
     17036      5652  TIP3      H1             23.2093296015      -17.6967457466        5.1361153365  SOLV      5641            0.0000000000
     17037      5652  TIP3      H2             24.6255096015      -17.8138757466        5.6582353365  SOLV      5641            0.0000000000
     17038      5653  TIP3      OH2            18.9485596015      -16.1247957466        3.6742753365  SOLV      5642            0.0000000000
     17039      5653  TIP3      H1             18.0593596015      -16.0252457466        3.3342353365  SOLV      5642            0.0000000000
     17040      5653  TIP3      H2             19.2450496015      -16.9664957466        3.3280653365  SOLV      5642            0.0000000000
     17041      5654  TIP3      OH2            22.6017396015      -16.1245357466        1.3307353365  SOLV      5643            0.0000000000
     17042      5654  TIP3      H1             23.5332896015      -15.9955357466        1.5090453365  SOLV      5643            0.0000000000
     17043      5654  TIP3      H2             22.3867696015      -15.4551057466        0.6812053365  SOLV      5643            0.0000000000
     17044      5655  TIP3      OH2            28.5254096015      -18.5187957466        8.1116953365  SOLV      5644            0.0000000000
     17045      5655  TIP3      H1             27.8485696015      -18.3874857466        8.7756653365  SOLV      5644            0.0000000000
     17046      5655  TIP3      H2             28.0398996015      -18.6738457466        7.3014653365  SOLV      5644            0.0000000000
     17047      5656  TIP3      OH2            21.2757596015      -14.9303157466       -1.1026546635  SOLV      5645            0.0000000000
     17048      5656  TIP3      H1             20.7332696015      -15.3099357466       -1.7938946635  SOLV      5645            0.0000000000
     17049      5656  TIP3      H2             22.1092496015      -14.7358457466       -1.5312446635  SOLV      5645            0.0000000000
     17050      5657  TIP3      OH2            31.8129196015       -2.8472557466       14.3884553365  SOLV      5646            0.0000000000
     17051      5657  TIP3      H1             32.0127896015       -2.4230657466       13.5539853365  SOLV      5646            0.0000000000
     17052      5657  TIP3      H2             32.4682896015       -2.5034357466       14.9954953365  SOLV      5646            0.0000000000
     17053      5658  TIP3      OH2            19.4108996015      -10.3731257466       13.9965053365  SOLV      5647            0.0000000000
     17054      5658  TIP3      H1             20.1431396015      -10.1185357466       14.5579553365  SOLV      5647            0.0000000000
     17055      5658  TIP3      H2             18.6307696015      -10.1685857466       14.5120453365  SOLV      5647            0.0000000000
     17056      5659  TIP3      OH2            25.4401896015      -14.9661257466        6.7344753365  SOLV      5648            0.0000000000
     17057      5659  TIP3      H1             26.0045296015      -15.5124657466        6.1874353365  SOLV      5648            0.0000000000
     17058      5659  TIP3      H2             25.2925296015      -15.4879357466        7.5232353365  SOLV      5648            0.0000000000
     17059      5660  TIP3      OH2            20.4421596015      -18.8295157466        3.1529553365  SOLV      5649            0.0000000000
     17060      5660  TIP3      H1             20.1251096015      -19.7319857466        3.1174953365  SOLV      5649            0.0000000000
     17061      5660  TIP3      H2             21.2235696015      -18.8277757466        2.6001153365  SOLV      5649            0.0000000000
     17062      5661  TIP3      OH2            24.0667796015      -16.5775157466        9.1485153365  SOLV      5650            0.0000000000
     17063      5661  TIP3      H1             23.2313096015      -16.1235657466        9.2587553365  SOLV      5650            0.0000000000
     17064      5661  TIP3      H2             24.5908396015      -16.3016657466        9.9005053365  SOLV      5650            0.0000000000
     17065      5662  TIP3      OH2            24.6110396015      -10.3647457466        0.8331553365  SOLV      5651            0.0000000000
     17066      5662  TIP3      H1             23.8661396015      -10.8722157466        0.5109453365  SOLV      5651            0.0000000000
     17067      5662  TIP3      H2             24.4767596015      -10.3159457466        1.7796353365  SOLV      5651            0.0000000000
     17068      5663  TIP3      OH2            31.7609296015      -11.2319257466        9.6199153365  SOLV      5652            0.0000000000
     17069      5663  TIP3      H1             32.4028096015      -10.7752957466        9.0761353365  SOLV      5652            0.0000000000
     17070      5663  TIP3      H2             30.9306196015      -11.1186857466        9.1573253365  SOLV      5652            0.0000000000
     17071      5664  TIP3      OH2            28.5087196015      -17.5507557466       -0.9675846635  SOLV      5653            0.0000000000
     17072      5664  TIP3      H1             27.5701396015      -17.4391957466       -1.1187046635  SOLV      5653            0.0000000000
     17073      5664  TIP3      H2             28.8059296015      -16.6940657466       -0.6610146635  SOLV      5653            0.0000000000
     17074      5665  TIP3      OH2            26.1302496015      -10.1804157466       12.0700653365  SOLV      5654            0.0000000000
     17075      5665  TIP3      H1             25.7848596015      -10.5621757466       12.8770253365  SOLV      5654            0.0000000000
     17076      5665  TIP3      H2             25.9302596015       -9.2470557466       12.1413553365  SOLV      5654            0.0000000000
     17077      5666  TIP3      OH2            29.2270696015      -15.6834857466        0.6931553365  SOLV      5655            0.0000000000
     17078      5666  TIP3      H1             30.1189696015      -15.8209857466        1.0122753365  SOLV      5655            0.0000000000
     17079      5666  TIP3      H2             29.2834296015      -14.8928757466        0.1565053365  SOLV      5655            0.0000000000
     17080      5667  TIP3      OH2            19.7358696015      -11.0697457466        6.6029453365  SOLV      5656            0.0000000000
     17081      5667  TIP3      H1             20.4805896015      -11.0721757466        6.0015953365  SOLV      5656            0.0000000000
     17082      5667  TIP3      H2             19.8135296015      -11.8933657466        7.0844553365  SOLV      5656            0.0000000000
     17083      5668  TIP3      OH2            26.7364496015       -8.9063157466       -0.1413846635  SOLV      5657            0.0000000000
     17084      5668  TIP3      H1             26.4412896015       -8.0795257466        0.2400953365  SOLV      5657            0.0000000000
     17085      5668  TIP3      H2             26.0334496015       -9.5256257466        0.0547553365  SOLV      5657            0.0000000000
     17086      5669  TIP3      OH2            16.7438396015      -12.6090557466       11.9177953365  SOLV      5658            0.0000000000
     17087      5669  TIP3      H1             16.9666996015      -13.0270957466       12.7495453365  SOLV      5658            0.0000000000
     17088      5669  TIP3      H2             16.1418496015      -13.2215557466       11.4950753365  SOLV      5658            0.0000000000
     17089      5670  TIP3      OH2            23.7603296015      -13.0920657466       14.1307653365  SOLV      5659            0.0000000000
     17090      5670  TIP3      H1             23.4644096015      -13.2577657466       13.2356753365  SOLV      5659            0.0000000000
     17091      5670  TIP3      H2             24.6918496015      -13.3120357466       14.1201553365  SOLV      5659            0.0000000000
     17092      5671  TIP3      OH2            28.3806096015       -7.7188657466       12.0205653365  SOLV      5660            0.0000000000
     17093      5671  TIP3      H1             27.4800396015       -7.5356057466       11.7529553365  SOLV      5660            0.0000000000
     17094      5671  TIP3      H2             28.4147196015       -7.4599357466       12.9414453365  SOLV      5660            0.0000000000
     17095      5672  TIP3      OH2            34.0751396015       -9.6739057466       13.2249753365  SOLV      5661            0.0000000000
     17096      5672  TIP3      H1             33.2239896015       -9.4355257466       12.8576153365  SOLV      5661            0.0000000000
     17097      5672  TIP3      H2             34.6654796015       -9.6905857466       12.4716853365  SOLV      5661            0.0000000000
     17098      5673  TIP3      OH2            32.4071096015       -6.6880357466        0.8530353365  SOLV      5662            0.0000000000
     17099      5673  TIP3      H1             32.0342196015       -7.5136557466        1.1620953365  SOLV      5662            0.0000000000
     17100      5673  TIP3      H2             32.6844596015       -6.8710957466       -0.0446246635  SOLV      5662            0.0000000000
     17101      5674  TIP3      OH2            29.5674996015      -11.8800857466        7.8742253365  SOLV      5663            0.0000000000
     17102      5674  TIP3      H1             28.6391896015      -12.1118957466        7.8471553365  SOLV      5663            0.0000000000
     17103      5674  TIP3      H2             30.0186096015      -12.6571057466        7.5441053365  SOLV      5663            0.0000000000
     17104      5675  TIP3      OH2            22.1108096015       -7.5519257466        4.0070953365  SOLV      5664            0.0000000000
     17105      5675  TIP3      H1             22.6380296015       -6.7784857466        3.8069753365  SOLV      5664            0.0000000000
     17106      5675  TIP3      H2             21.2306596015       -7.3270057466        3.7054953365  SOLV      5664            0.0000000000
     17107      5676  TIP3      OH2            17.8655796015      -12.6895157466       -1.4056646635  SOLV      5665            0.0000000000
     17108      5676  TIP3      H1             18.4815696015      -12.0627957466       -1.0261846635  SOLV      5665            0.0000000000
     17109      5676  TIP3      H2             17.0038396015      -12.3735357466       -1.1340146635  SOLV      5665            0.0000000000
     17110      5677  TIP3      OH2            23.5380396015       -9.8889357466        3.5835253365  SOLV      5666            0.0000000000
     17111      5677  TIP3      H1             23.2970396015       -8.9634957466        3.6250553365  SOLV      5666            0.0000000000
     17112      5677  TIP3      H2             22.7973996015      -10.3478057466        3.9799153365  SOLV      5666            0.0000000000
     17113      5678  TIP3      OH2            24.0526996015       -5.7395757466        9.8986353365  SOLV      5667            0.0000000000
     17114      5678  TIP3      H1             24.4151696015       -4.8850157466        9.6650753365  SOLV      5667            0.0000000000
     17115      5678  TIP3      H2             24.5842196015       -6.0314157466       10.6392653365  SOLV      5667            0.0000000000
     17116      5679  TIP3      OH2            22.2211196015       -4.8671757466        3.1287453365  SOLV      5668            0.0000000000
     17117      5679  TIP3      H1             21.2711696015       -4.7614357466        3.1800753365  SOLV      5668            0.0000000000
     17118      5679  TIP3      H2             22.5729296015       -4.0464357466        3.4734953365  SOLV      5668            0.0000000000
     17119      5680  TIP3      OH2            27.5967796015       -9.6405057466        9.5991953365  SOLV      5669            0.0000000000
     17120      5680  TIP3      H1             27.1709096015       -9.8683357466       10.4255953365  SOLV      5669            0.0000000000
     17121      5680  TIP3      H2             28.1773596015      -10.3793257466        9.4167253365  SOLV      5669            0.0000000000
     17122      5681  TIP3      OH2            29.7996696015       -8.7114557466       -1.3269046635  SOLV      5670            0.0000000000
     17123      5681  TIP3      H1             30.1529796015       -9.0914757466       -0.5225546635  SOLV      5670            0.0000000000
     17124      5681  TIP3      H2             28.8510196015       -8.8049757466       -1.2399746635  SOLV      5670            0.0000000000
     17125      5682  TIP3      OH2            30.2551996015       -5.0885557466       12.0686753365  SOLV      5671            0.0000000000
     17126      5682  TIP3      H1             29.6535196015       -5.6442657466       11.5733053365  SOLV      5671            0.0000000000
     17127      5682  TIP3      H2             30.5365696015       -4.4215757466       11.4424153365  SOLV      5671            0.0000000000
     17128      5683  TIP3      OH2            34.3031096015       -4.2322057466       -1.1258846635  SOLV      5672            0.0000000000
     17129      5683  TIP3      H1             35.0468996015       -3.6461557466       -1.2657246635  SOLV      5672            0.0000000000
     17130      5683  TIP3      H2             33.6089196015       -3.6636257466       -0.7926446635  SOLV      5672            0.0000000000
     17131      5684  TIP3      OH2            18.3777896015      -17.8557857466       11.4759353365  SOLV      5673            0.0000000000
     17132      5684  TIP3      H1             17.4850196015      -17.5172457466       11.4083353365  SOLV      5673            0.0000000000
     17133      5684  TIP3      H2             18.2790696015      -18.7111757466       11.8940153365  SOLV      5673            0.0000000000
     17134      5685  TIP3      OH2            30.6655996015      -10.0392557466        0.8998853365  SOLV      5674            0.0000000000
     17135      5685  TIP3      H1             30.3883596015      -10.7673257466        1.4559953365  SOLV      5674            0.0000000000
     17136      5685  TIP3      H2             31.5928996015       -9.9200557466        1.1051453365  SOLV      5674            0.0000000000
     17137      5686  TIP3      OH2            18.0289896015       -6.0513457466        9.9108753365  SOLV      5675            0.0000000000
     17138      5686  TIP3      H1             18.2460196015       -6.9831057466        9.8798453365  SOLV      5675            0.0000000000
     17139      5686  TIP3      H2             18.2753396015       -5.7768457466       10.7941553365  SOLV      5675            0.0000000000
     17140      5687  TIP3      OH2            23.8904496015       -7.5998457466       -2.8799046635  SOLV      5676            0.0000000000
     17141      5687  TIP3      H1             24.1294296015       -8.3480357466       -3.4270146635  SOLV      5676            0.0000000000
     17142      5687  TIP3      H2             23.6215796015       -7.9876757466       -2.0471246635  SOLV      5676            0.0000000000
     17143      5688  TIP3      OH2            22.8275096015       -8.0294657466       -0.4236446635  SOLV      5677            0.0000000000
     17144      5688  TIP3      H1             22.9743096015       -8.5494857466        0.3664453365  SOLV      5677            0.0000000000
     17145      5688  TIP3      H2             22.8246796015       -7.1227057466       -0.1170546635  SOLV      5677            0.0000000000
     17146      5689  TIP3      OH2            19.2806196015      -10.7771357466        0.0868953365  SOLV      5678            0.0000000000
     17147      5689  TIP3      H1             18.5945496015      -10.4248857466        0.6538653365  SOLV      5678            0.0000000000
     17148      5689  TIP3      H2             19.8034096015      -10.0141757466       -0.1596746635  SOLV      5678            0.0000000000
     17149      5690  TIP3      OH2            27.1121296015      -18.1147557466       10.3657953365  SOLV      5679            0.0000000000
     17150      5690  TIP3      H1             27.8109196015      -18.0408857466       11.0157653365  SOLV      5679            0.0000000000
     17151      5690  TIP3      H2             26.7312696015      -18.9792557466       10.5200853365  SOLV      5679            0.0000000000
     17152      5691  TIP3      OH2            27.8966196015      -18.4625857466        1.4630253365  SOLV      5680            0.0000000000
     17153      5691  TIP3      H1             28.1164496015      -17.9910457466        0.6595653365  SOLV      5680            0.0000000000
     17154      5691  TIP3      H2             28.4550196015      -18.0683257466        2.1330853365  SOLV      5680            0.0000000000
     17155      5692  TIP3      OH2            25.5652296015       -6.3321057466        0.3257753365  SOLV      5681            0.0000000000
     17156      5692  TIP3      H1             24.7488396015       -5.8351357466        0.3782053365  SOLV      5681            0.0000000000
     17157      5692  TIP3      H2             26.0948596015       -5.8567557466       -0.3143446635  SOLV      5681            0.0000000000
     17158      5693  TIP3      OH2            25.0966096015      -16.7347057466        2.2978653365  SOLV      5682            0.0000000000
     17159      5693  TIP3      H1             25.9088696015      -16.2303857466        2.3440353365  SOLV      5682            0.0000000000
     17160      5693  TIP3      H2             24.8519096015      -16.8797357466        3.2118253365  SOLV      5682            0.0000000000
     17161      5694  TIP3      OH2            25.6322496015      -15.7484357466       11.4825253365  SOLV      5683            0.0000000000
     17162      5694  TIP3      H1             25.7512796015      -15.1748957466       12.2395653365  SOLV      5683            0.0000000000
     17163      5694  TIP3      H2             26.2877096015      -16.4364957466       11.5973053365  SOLV      5683            0.0000000000
     17164      5695  TIP3      OH2            25.9802796015      -19.6534057466        3.2359753365  SOLV      5684            0.0000000000
     17165      5695  TIP3      H1             25.6336296015      -19.0363457466        3.8804053365  SOLV      5684            0.0000000000
     17166      5695  TIP3      H2             26.6389696015      -19.1528357466        2.7545253365  SOLV      5684            0.0000000000
     17167      5696  TIP3      OH2            22.9035396015       -5.2883857466        0.3074653365  SOLV      5685            0.0000000000
     17168      5696  TIP3      H1             23.0644096015       -4.4886357466       -0.1932746635  SOLV      5685            0.0000000000
     17169      5696  TIP3      H2             22.7063196015       -4.9817857466        1.1925253365  SOLV      5685            0.0000000000
     17170      5697  TIP3      OH2            21.6379796015      -18.5904657466       -0.0767746635  SOLV      5686            0.0000000000
     17171      5697  TIP3      H1             21.5544596015      -17.7021557466        0.2698653365  SOLV      5686            0.0000000000
     17172      5697  TIP3      H2             22.5280096015      -18.8557957466        0.1549053365  SOLV      5686            0.0000000000
     17173      5698  TIP3      OH2            31.8368296015      -17.8414057466       12.3174953365  SOLV      5687            0.0000000000
     17174      5698  TIP3      H1             30.9204096015      -17.5792357466       12.2298653365  SOLV      5687            0.0000000000
     17175      5698  TIP3      H2             32.1723296015      -17.8445057466       11.4210253365  SOLV      5687            0.0000000000
     17176      5699  TIP3      OH2            30.4389296015      -14.0913057466        6.4132253365  SOLV      5688            0.0000000000
     17177      5699  TIP3      H1             29.6413696015      -14.5062857466        6.0847253365  SOLV      5688            0.0000000000
     17178      5699  TIP3      H2             30.8840396015      -14.7819357466        6.9042753365  SOLV      5688            0.0000000000
     17179      5700  TIP3      OH2            19.8965096015       -8.1632457466       -1.0163246635  SOLV      5689            0.0000000000
     17180      5700  TIP3      H1             20.4886596015       -7.4637657466       -0.7400846635  SOLV      5689            0.0000000000
     17181      5700  TIP3      H2             20.3558096015       -8.5962957466       -1.7358646635  SOLV      5689            0.0000000000
     17182      5701  TIP3      OH2            18.2124296015      -15.4989457466       -1.9003846635  SOLV      5690            0.0000000000
     17183      5701  TIP3      H1             18.1676896015      -14.5596357466       -1.7216846635  SOLV      5690            0.0000000000
     17184      5701  TIP3      H2             17.3247496015      -15.7344557466       -2.1701746635  SOLV      5690            0.0000000000
     17185      5702  TIP3      OH2            31.5253896015       -4.8350557466        8.0355753365  SOLV      5691            0.0000000000
     17186      5702  TIP3      H1             31.3698196015       -4.1566157466        7.3785053365  SOLV      5691            0.0000000000
     17187      5702  TIP3      H2             32.4580296015       -4.7631257466        8.2386353365  SOLV      5691            0.0000000000
     17188      5703  TIP3      OH2            19.0206296015      -20.7172857466        6.7727153365  SOLV      5692            0.0000000000
     17189      5703  TIP3      H1             18.7916096015      -20.6580357466        5.8452153365  SOLV      5692            0.0000000000
     17190      5703  TIP3      H2             18.5779696015      -21.5087357466        7.0791253365  SOLV      5692            0.0000000000
     17191      5704  TIP3      OH2            17.9509596015       -6.7765757466        2.9332953365  SOLV      5693            0.0000000000
     17192      5704  TIP3      H1             17.1188196015       -6.3043057466        2.9604353365  SOLV      5693            0.0000000000
     17193      5704  TIP3      H2             18.4967896015       -6.2668157466        2.3346053365  SOLV      5693            0.0000000000
     17194      5705  TIP3      OH2            17.2393296015       -4.1642057466       14.2630953365  SOLV      5694            0.0000000000
     17195      5705  TIP3      H1             17.7795496015       -4.3808057466       15.0230153365  SOLV      5694            0.0000000000
     17196      5705  TIP3      H2             16.7581296015       -4.9696057466       14.0733453365  SOLV      5694            0.0000000000
     17197      5706  TIP3      OH2            21.8366696015       -5.2447657466       15.8835153365  SOLV      5695            0.0000000000
     17198      5706  TIP3      H1             22.6043896015       -5.7036857466       16.2244353365  SOLV      5695            0.0000000000
     17199      5706  TIP3      H2             21.8152896015       -5.4707857466       14.9536353365  SOLV      5695            0.0000000000
     17200      5707  TIP3      OH2            25.9286296015       -5.7367057466       -2.7413046635  SOLV      5696            0.0000000000
     17201      5707  TIP3      H1             25.2847296015       -6.3678457466       -2.4199346635  SOLV      5696            0.0000000000
     17202      5707  TIP3      H2             26.6904596015       -6.2679057466       -2.9729546635  SOLV      5696            0.0000000000
     17203      5708  TIP3      OH2            28.4135396015       -6.8646557466       14.6126653365  SOLV      5697            0.0000000000
     17204      5708  TIP3      H1             28.0624896015       -7.7213557466       14.8557053365  SOLV      5697            0.0000000000
     17205      5708  TIP3      H2             29.1398596015       -6.7219857466       15.2195653365  SOLV      5697            0.0000000000
     17206      5709  TIP3      OH2            30.5329196015       -5.9197157466       -2.5075046635  SOLV      5698            0.0000000000
     17207      5709  TIP3      H1             30.8159596015       -6.7141957466       -2.0548146635  SOLV      5698            0.0000000000
     17208      5709  TIP3      H2             31.2727096015       -5.6866157466       -3.0683946635  SOLV      5698            0.0000000000
     17209      5710  TIP3      OH2            17.1462796015      -10.3537957466       15.2175253365  SOLV      5699            0.0000000000
     17210      5710  TIP3      H1             17.2903296015      -11.2557257466       14.9311953365  SOLV      5699            0.0000000000
     17211      5710  TIP3      H2             16.3740196015      -10.0675857466       14.7297553365  SOLV      5699            0.0000000000
     17212      5711  TIP3      OH2            21.4876496015      -10.0102257466       -2.6500146635  SOLV      5700            0.0000000000
     17213      5711  TIP3      H1             21.5520596015      -10.8042657466       -2.1193746635  SOLV      5700            0.0000000000
     17214      5711  TIP3      H2             22.1405696015      -10.1289457466       -3.3398146635  SOLV      5700            0.0000000000
     17215      5712  TIP3      OH2            23.8018896015      -10.3839857466       14.6501653365  SOLV      5701            0.0000000000
     17216      5712  TIP3      H1             23.4732696015      -10.1131757466       13.7929053365  SOLV      5701            0.0000000000
     17217      5712  TIP3      H2             23.9537096015      -11.3250057466       14.5626653365  SOLV      5701            0.0000000000
     17218      5713  TIP3      OH2            26.8399896015       -8.9630557466       -2.9142146635  SOLV      5702            0.0000000000
     17219      5713  TIP3      H1             26.5713996015       -8.7828457466       -2.0133246635  SOLV      5702            0.0000000000
     17220      5713  TIP3      H2             26.6335496015       -9.8884357466       -3.0456346635  SOLV      5702            0.0000000000
     17221      5714  TIP3      OH2            29.5364096015      -10.4682557466       12.0333953365  SOLV      5703            0.0000000000
     17222      5714  TIP3      H1             30.2818896015       -9.8798857466       11.9137953365  SOLV      5703            0.0000000000
     17223      5714  TIP3      H2             28.7790896015       -9.8862857466       12.0967053365  SOLV      5703            0.0000000000
     17224      5715  TIP3      OH2            17.9789296015      -13.1534657466       14.6374553365  SOLV      5704            0.0000000000
     17225      5715  TIP3      H1             18.3870496015      -14.0108057466       14.5165153365  SOLV      5704            0.0000000000
     17226      5715  TIP3      H2             17.7186896015      -13.1393357466       15.5584853365  SOLV      5704            0.0000000000
     17227      5716  TIP3      OH2            22.6370296015      -12.0376057466       -0.3442146635  SOLV      5705            0.0000000000
     17228      5716  TIP3      H1             22.1772296015      -12.5217757466        0.3416353365  SOLV      5705            0.0000000000
     17229      5716  TIP3      H2             22.8918996015      -12.7060657466       -0.9801646635  SOLV      5705            0.0000000000
     17230      5717  TIP3      OH2            21.9259596015      -14.1448957466       12.0117453365  SOLV      5706            0.0000000000
     17231      5717  TIP3      H1             21.3075696015      -13.4702357466       12.2922153365  SOLV      5706            0.0000000000
     17232      5717  TIP3      H2             22.2700796015      -13.8235057466       11.1783653365  SOLV      5706            0.0000000000
     17233      5718  TIP3      OH2            23.7080696015      -13.7944257466       -2.0818946635  SOLV      5707            0.0000000000
     17234      5718  TIP3      H1             23.5275696015      -13.9493057466       -3.0090646635  SOLV      5707            0.0000000000
     17235      5718  TIP3      H2             24.6581196015      -13.6865557466       -2.0371046635  SOLV      5707            0.0000000000
     17236      5719  TIP3      OH2            26.9457796015      -11.6733657466       15.2892253365  SOLV      5708            0.0000000000
     17237      5719  TIP3      H1             27.8988996015      -11.5894557466       15.2618253365  SOLV      5708            0.0000000000
     17238      5719  TIP3      H2             26.7852396015      -12.3851857466       15.9087153365  SOLV      5708            0.0000000000
     17239      5720  TIP3      OH2            33.0978996015      -11.4400057466       -2.6360846635  SOLV      5709            0.0000000000
     17240      5720  TIP3      H1             32.8243796015      -11.8644557466       -3.4492546635  SOLV      5709            0.0000000000
     17241      5720  TIP3      H2             33.1373096015      -10.5085557466       -2.8530446635  SOLV      5709            0.0000000000
     17242      5721  TIP3      OH2            22.2653296015      -16.7898157466       13.0940553365  SOLV      5710            0.0000000000
     17243      5721  TIP3      H1             22.4154196015      -17.5186857466       12.4920253365  SOLV      5710            0.0000000000
     17244      5721  TIP3      H2             22.2675696015      -16.0126457466       12.5352753365  SOLV      5710            0.0000000000
     17245      5722  TIP3      OH2            22.6778996015      -18.4202357466       10.5867953365  SOLV      5711            0.0000000000
     17246      5722  TIP3      H1             23.2136496015      -17.9685657466        9.9347253365  SOLV      5711            0.0000000000
     17247      5722  TIP3      H2             21.8258596015      -18.5282557466       10.1642053365  SOLV      5711            0.0000000000
     17248      5723  TIP3      OH2            24.2597396015      -12.9806157466       10.8263153365  SOLV      5712            0.0000000000
     17249      5723  TIP3      H1             25.0102196015      -13.1368657466       10.2530953365  SOLV      5712            0.0000000000
     17250      5723  TIP3      H2             23.9205696015      -12.1289557466       10.5508653365  SOLV      5712            0.0000000000
     17251      5724  TIP3      OH2            28.6753596015      -15.1654357466       15.8548453365  SOLV      5713            0.0000000000
     17252      5724  TIP3      H1             28.8674896015      -16.0964957466       15.7432953365  SOLV      5713            0.0000000000
     17253      5724  TIP3      H2             29.5329896015      -14.7404857466       15.8443853365  SOLV      5713            0.0000000000
     17254      5725  TIP3      OH2            29.9920796015      -12.3769157466       13.9321153365  SOLV      5714            0.0000000000
     17255      5725  TIP3      H1             29.7105796015      -11.6674557466       13.3544953365  SOLV      5714            0.0000000000
     17256      5725  TIP3      H2             30.9345096015      -12.4496157466       13.7812353365  SOLV      5714            0.0000000000
     17257      5726  TIP3      OH2            20.7439596015      -15.5914657466       15.0056153365  SOLV      5715            0.0000000000
     17258      5726  TIP3      H1             19.9768596015      -16.1239857466       14.7953753365  SOLV      5715            0.0000000000
     17259      5726  TIP3      H2             21.4228596015      -15.9014257466       14.4062453365  SOLV      5715            0.0000000000
     17260      5727  TIP3      OH2            23.4834496015      -20.9636657466       11.0181553365  SOLV      5716            0.0000000000
     17261      5727  TIP3      H1             23.3854096015      -20.0173457466       10.9127753365  SOLV      5716            0.0000000000
     17262      5727  TIP3      H2             22.7410696015      -21.3362857466       10.5425053365  SOLV      5716            0.0000000000
     17263      5728  TIP3      OH2            24.7474996015      -16.6421257466       14.5819953365  SOLV      5717            0.0000000000
     17264      5728  TIP3      H1             24.5120396015      -16.8614557466       15.4834853365  SOLV      5717            0.0000000000
     17265      5728  TIP3      H2             23.9641896015      -16.8490057466       14.0722453365  SOLV      5717            0.0000000000
     17266      5729  TIP3      OH2            27.4631596015      -17.5147757466       13.6573453365  SOLV      5718            0.0000000000
     17267      5729  TIP3      H1             26.5156996015      -17.4828057466       13.7896753365  SOLV      5718            0.0000000000
     17268      5729  TIP3      H2             27.7758296015      -18.1400657466       14.3111653365  SOLV      5718            0.0000000000
     17269      5730  TIP3      OH2            29.0973096015      -18.8806657466       15.6625353365  SOLV      5719            0.0000000000
     17270      5730  TIP3      H1             29.0004896015      -19.8329357466       15.6567253365  SOLV      5719            0.0000000000
     17271      5730  TIP3      H2             28.7756196015      -18.6119857466       16.5230853365  SOLV      5719            0.0000000000
     17272      5731  TIP3      OH2            18.9242396015      -17.6710857466       14.7100853365  SOLV      5720            0.0000000000
     17273      5731  TIP3      H1             19.1359796015      -18.3774757466       14.0998353365  SOLV      5720            0.0000000000
     17274      5731  TIP3      H2             18.8129896015      -18.1084857466       15.5542053365  SOLV      5720            0.0000000000
     17275      5732  TIP3      OH2            23.7052596015      -21.6699257466       13.6894353365  SOLV      5721            0.0000000000
     17276      5732  TIP3      H1             24.4170996015      -22.3097057466       13.6753453365  SOLV      5721            0.0000000000
     17277      5732  TIP3      H2             23.6042996015      -21.4030957466       12.7757453365  SOLV      5721            0.0000000000
     17278      5733  TIP3      OH2            24.0590096015      -19.9870857466       15.7430653365  SOLV      5722            0.0000000000
     17279      5733  TIP3      H1             23.9272296015      -20.4627057466       14.9229153365  SOLV      5722            0.0000000000
     17280      5733  TIP3      H2             23.4597496015      -19.2427257466       15.6877753365  SOLV      5722            0.0000000000
     17281      5734  TIP3      OH2            23.6052396015       -3.1040557466       -1.0805346635  SOLV      5723            0.0000000000
     17282      5734  TIP3      H1             24.5383096015       -2.9461857466       -0.9366946635  SOLV      5723            0.0000000000
     17283      5734  TIP3      H2             23.3411196015       -2.4287557466       -1.7053846635  SOLV      5723            0.0000000000
     17284      5735  TIP3      OH2            17.1737296015       -8.4676757466       -1.5977246635  SOLV      5724            0.0000000000
     17285      5735  TIP3      H1             18.0876496015       -8.3887857466       -1.3243346635  SOLV      5724            0.0000000000
     17286      5735  TIP3      H2             17.1810396015       -9.1547157466       -2.2641646635  SOLV      5724            0.0000000000
     17287      5736  TIP3      OH2            15.8227896015       -3.0748257466        3.4796653365  SOLV      5725            0.0000000000
     17288      5736  TIP3      H1             15.1754996015       -3.5366557466        2.9467853365  SOLV      5725            0.0000000000
     17289      5736  TIP3      H2             16.1772496015       -3.7464957466        4.0622853365  SOLV      5725            0.0000000000
     17290      5737  TIP3      OH2            16.6927096015       -4.9941257466        5.2842853365  SOLV      5726            0.0000000000
     17291      5737  TIP3      H1             16.3583896015       -5.8743957466        5.4563053365  SOLV      5726            0.0000000000
     17292      5737  TIP3      H2             16.9149496015       -4.6486257466        6.1488453365  SOLV      5726            0.0000000000
     17293      5738  TIP3      OH2            34.2411896015       -4.1844857466        8.2647653365  SOLV      5727            0.0000000000
     17294      5738  TIP3      H1             34.2198596015       -3.9996457466        9.2037053365  SOLV      5727            0.0000000000
     17295      5738  TIP3      H2             34.9318096015       -3.6160857466        7.9239053365  SOLV      5727            0.0000000000
     17296      5739  TIP3      OH2            33.8044796015       -4.6173757466       11.1866753365  SOLV      5728            0.0000000000
     17297      5739  TIP3      H1             33.3173496015       -5.3529657466       10.8154153365  SOLV      5728            0.0000000000
     17298      5739  TIP3      H2             34.3537496015       -5.0109857466       11.8646153365  SOLV      5728            0.0000000000
     17299      5740  TIP3      OH2            32.2552096015       -8.8275657466       15.8247053365  SOLV      5729            0.0000000000
     17300      5740  TIP3      H1             31.3893196015       -8.9325957466       16.2189353365  SOLV      5729            0.0000000000
     17301      5740  TIP3      H2             32.6317996015       -8.0692357466       16.2711753365  SOLV      5729            0.0000000000
     17302      5741  TIP3      OH2            33.5561796015      -10.5711957466        1.3389553365  SOLV      5730            0.0000000000
     17303      5741  TIP3      H1             34.4063196015      -10.1501057466        1.4661153365  SOLV      5730            0.0000000000
     17304      5741  TIP3      H2             33.5616896015      -11.3111857466        1.9460953365  SOLV      5730            0.0000000000
     17305      5742  TIP3      OH2            33.9507396015      -12.5174557466        3.1625253365  SOLV      5731            0.0000000000
     17306      5742  TIP3      H1             33.2241996015      -12.9971957466        3.5602853365  SOLV      5731            0.0000000000
     17307      5742  TIP3      H2             34.5320696015      -12.3119857466        3.8946853365  SOLV      5731            0.0000000000
     17308      5743  TIP3      OH2            32.1960896015       -6.8549557466       10.4171253365  SOLV      5732            0.0000000000
     17309      5743  TIP3      H1             31.5486196015       -6.5298057466       11.0426453365  SOLV      5732            0.0000000000
     17310      5743  TIP3      H2             31.6784896015       -7.2951857466        9.7429553365  SOLV      5732            0.0000000000
     17311      5744  TIP3      OH2            34.2190496015      -12.6166057466       -0.4463446635  SOLV      5733            0.0000000000
     17312      5744  TIP3      H1             33.6971596015      -12.2601957466       -1.1652546635  SOLV      5733            0.0000000000
     17313      5744  TIP3      H2             34.1859696015      -11.9418257466        0.2317453365  SOLV      5733            0.0000000000
     17314      5745  TIP3      OH2            32.5679496015      -15.3770457466       -1.8956346635  SOLV      5734            0.0000000000
     17315      5745  TIP3      H1             32.6643896015      -14.7103457466       -2.5756646635  SOLV      5734            0.0000000000
     17316      5745  TIP3      H2             32.4279096015      -16.1924157466       -2.3770846635  SOLV      5734            0.0000000000
     17317      5746  TIP3      OH2            31.7374196015      -13.9968057466        3.7253953365  SOLV      5735            0.0000000000
     17318      5746  TIP3      H1             31.5872996015      -14.9419457466        3.7051753365  SOLV      5735            0.0000000000
     17319      5746  TIP3      H2             31.3838696015      -13.7156657466        4.5693053365  SOLV      5735            0.0000000000
     17320      5747  TIP3      OH2            16.7726596015      -11.9185857466        7.7357753365  SOLV      5736            0.0000000000
     17321      5747  TIP3      H1             16.9569496015      -12.0004157466        6.8000653365  SOLV      5736            0.0000000000
     17322      5747  TIP3      H2             17.6219496015      -12.0428857466        8.1594153365  SOLV      5736            0.0000000000
     17323      5748  TIP3      OH2            32.5937096015      -12.0264757466       13.3642253365  SOLV      5737            0.0000000000
     17324      5748  TIP3      H1             33.1764396015      -12.7612457466       13.5559453365  SOLV      5737            0.0000000000
     17325      5748  TIP3      H2             33.1576396015      -11.2544457466       13.4108053365  SOLV      5737            0.0000000000
     17326      5749  TIP3      OH2            34.0904196015      -14.1238957466       14.0487653365  SOLV      5738            0.0000000000
     17327      5749  TIP3      H1             33.2270896015      -14.5026857466       13.8832353365  SOLV      5738            0.0000000000
     17328      5749  TIP3      H2             34.6947896015      -14.8624157466       13.9743453365  SOLV      5738            0.0000000000
     17329      5750  TIP3      OH2            31.8153296015      -17.9690657466       -2.7780846635  SOLV      5739            0.0000000000
     17330      5750  TIP3      H1             32.4259096015      -18.3403857466       -2.1412646635  SOLV      5739            0.0000000000
     17331      5750  TIP3      H2             30.9784796015      -18.3903757466       -2.5820846635  SOLV      5739            0.0000000000
     17332      5751  TIP3      OH2            31.4478996015      -16.4142257466        2.1879053365  SOLV      5740            0.0000000000
     17333      5751  TIP3      H1             31.7276096015      -17.3211857466        2.3120753365  SOLV      5740            0.0000000000
     17334      5751  TIP3      H2             32.2070696015      -15.9800757466        1.7988253365  SOLV      5740            0.0000000000
     17335      5752  TIP3      OH2            32.0597296015      -15.8324857466        7.6237953365  SOLV      5741            0.0000000000
     17336      5752  TIP3      H1             32.9925296015      -15.6204957466        7.5893953365  SOLV      5741            0.0000000000
     17337      5752  TIP3      H2             31.8244796015      -15.7312757466        8.5460953365  SOLV      5741            0.0000000000
     17338      5753  TIP3      OH2            32.0889196015      -15.0959557466       10.3997353365  SOLV      5742            0.0000000000
     17339      5753  TIP3      H1             31.2460496015      -14.8279157466       10.7657153365  SOLV      5742            0.0000000000
     17340      5753  TIP3      H2             32.5313496015      -14.2737657466       10.1888453365  SOLV      5742            0.0000000000
     17341      5754  TIP3      OH2            16.3701396015      -16.6480857466       13.8766553365  SOLV      5743            0.0000000000
     17342      5754  TIP3      H1             17.2896296015      -16.7702557466       14.1129653365  SOLV      5743            0.0000000000
     17343      5754  TIP3      H2             15.9205896015      -17.3981157466       14.2660053365  SOLV      5743            0.0000000000
     17344      5755  TIP3      OH2            32.0613796015      -19.1512957466        2.2361053365  SOLV      5744            0.0000000000
     17345      5755  TIP3      H1             32.2438796015      -19.6001457466        3.0616053365  SOLV      5744            0.0000000000
     17346      5755  TIP3      H2             31.4616696015      -19.7358557466        1.7725653365  SOLV      5744            0.0000000000
     17347      5756  TIP3      OH2            17.5913896015      -18.3359257466        6.7679453365  SOLV      5745            0.0000000000
     17348      5756  TIP3      H1             18.0365496015      -19.1276757466        7.0699153365  SOLV      5745            0.0000000000
     17349      5756  TIP3      H2             18.0576896015      -17.6194057466        7.1985053365  SOLV      5745            0.0000000000
     17350      5757  TIP3      OH2            15.8954196015      -15.3366257466        7.8369653365  SOLV      5746            0.0000000000
     17351      5757  TIP3      H1             16.3873996015      -15.5575757466        7.0461653365  SOLV      5746            0.0000000000
     17352      5757  TIP3      H2             16.2575096015      -14.4962857466        8.1179153365  SOLV      5746            0.0000000000
     17353      5758  TIP3      OH2            16.2090696015      -19.0787157466        1.8912053365  SOLV      5747            0.0000000000
     17354      5758  TIP3      H1             15.2839096015      -18.8700557466        1.7617553365  SOLV      5747            0.0000000000
     17355      5758  TIP3      H2             16.6630596015      -18.5946357466        1.2014353365  SOLV      5747            0.0000000000
     17356      5759  TIP3      OH2            30.9797896015       -4.0945457466        3.8369453365  SOLV      5748            0.0000000000
     17357      5759  TIP3      H1             31.6320796015       -4.4423357466        3.2288553365  SOLV      5748            0.0000000000
     17358      5759  TIP3      H2             31.4901696015       -3.6062257466        4.4829153365  SOLV      5748            0.0000000000
     17359      5760  TIP3      OH2            16.1726096015      -20.3408157466       10.2354553365  SOLV      5749            0.0000000000
     17360      5760  TIP3      H1             15.5076596015      -20.5867857466       10.8785453365  SOLV      5749            0.0000000000
     17361      5760  TIP3      H2             15.7297396015      -19.7187757466        9.6582553365  SOLV      5749            0.0000000000
     17362      5761  TIP3      OH2            18.3645396015       -7.1654057466       14.3800353365  SOLV      5750            0.0000000000
     17363      5761  TIP3      H1             17.5437896015       -6.9907557466       13.9195053365  SOLV      5750            0.0000000000
     17364      5761  TIP3      H2             18.1123196015       -7.2389357466       15.3004753365  SOLV      5750            0.0000000000
     17365      5762  TIP3      OH2            21.3188296015       -6.1912857466       10.6384353365  SOLV      5751            0.0000000000
     17366      5762  TIP3      H1             20.8939396015       -5.3814357466       10.3558953365  SOLV      5751            0.0000000000
     17367      5762  TIP3      H2             22.2231096015       -6.1058757466       10.3364153365  SOLV      5751            0.0000000000
     17368      5763  TIP3      OH2            25.6299696015       -4.7922857466       13.5978053365  SOLV      5752            0.0000000000
     17369      5763  TIP3      H1             25.8147196015       -5.1256757466       14.4758353365  SOLV      5752            0.0000000000
     17370      5763  TIP3      H2             26.4764196015       -4.4824257466       13.2757253365  SOLV      5752            0.0000000000
     17371      5764  TIP3      OH2            27.9750096015       -3.5063957466       12.8419453365  SOLV      5753            0.0000000000
     17372      5764  TIP3      H1             28.6518996015       -4.1391657466       12.6018653365  SOLV      5753            0.0000000000
     17373      5764  TIP3      H2             28.2968896015       -3.1053457466       13.6492753365  SOLV      5753            0.0000000000
     17374      5765  TIP3      OH2            18.7204996015       -2.9348957466       10.6859653365  SOLV      5754            0.0000000000
     17375      5765  TIP3      H1             18.0001396015       -2.4947957466       10.2347353365  SOLV      5754            0.0000000000
     17376      5765  TIP3      H2             18.3548996015       -3.1854257466       11.5343653365  SOLV      5754            0.0000000000
     17377      5766  TIP3      OH2            21.1877596015       -3.3345057466        9.7156853365  SOLV      5755            0.0000000000
     17378      5766  TIP3      H1             20.3229796015       -3.2626557466       10.1196953365  SOLV      5755            0.0000000000
     17379      5766  TIP3      H2             21.1326596015       -2.7877757466        8.9319353365  SOLV      5755            0.0000000000
     17380      5767  TIP3      OH2            25.8983196015       -3.4466157466        8.8912853365  SOLV      5756            0.0000000000
     17381      5767  TIP3      H1             25.4417196015       -2.9176457466        8.2371253365  SOLV      5756            0.0000000000
     17382      5767  TIP3      H2             26.0611196015       -2.8434757466        9.6165153365  SOLV      5756            0.0000000000
     17383      5768  TIP3      OH2            28.2259496015       -4.5686557466        9.8363153365  SOLV      5757            0.0000000000
     17384      5768  TIP3      H1             27.3213196015       -4.4036357466        9.5705253365  SOLV      5757            0.0000000000
     17385      5768  TIP3      H2             28.6548096015       -3.7154357466        9.7706553365  SOLV      5757            0.0000000000
     17386      5769  TIP3      OH2            30.8301396015       -2.9987457466       10.1310953365  SOLV      5758            0.0000000000
     17387      5769  TIP3      H1             30.6483396015       -2.0828557466        9.9205853365  SOLV      5758            0.0000000000
     17388      5769  TIP3      H2             31.0069196015       -3.4090357466        9.2845553365  SOLV      5758            0.0000000000
     17389      5770  TIP3      OH2            18.1353096015       -4.3116457466        7.5961453365  SOLV      5759            0.0000000000
     17390      5770  TIP3      H1             18.1169096015       -4.7371357466        8.4533753365  SOLV      5759            0.0000000000
     17391      5770  TIP3      H2             18.9400996015       -4.6301457466        7.1873653365  SOLV      5759            0.0000000000
     17392      5771  TIP3      OH2            20.2766196015       -5.6017757466        6.2511353365  SOLV      5760            0.0000000000
     17393      5771  TIP3      H1             20.0576896015       -6.5180357466        6.4207353365  SOLV      5760            0.0000000000
     17394      5771  TIP3      H2             21.1008396015       -5.4617357466        6.7172753365  SOLV      5760            0.0000000000
     17395      5772  TIP3      OH2            22.8138696015       -5.1318457466        7.0999353365  SOLV      5761            0.0000000000
     17396      5772  TIP3      H1             23.0264396015       -6.0199457466        6.8130253365  SOLV      5761            0.0000000000
     17397      5772  TIP3      H2             22.8783796015       -5.1660757466        8.0543353365  SOLV      5761            0.0000000000
     17398      5773  TIP3      OH2            26.3222396015      -19.4677857466        6.2442653365  SOLV      5762            0.0000000000
     17399      5773  TIP3      H1             25.6479196015      -20.0972257466        6.4998453365  SOLV      5762            0.0000000000
     17400      5773  TIP3      H2             26.8861596015      -19.9518957466        5.6410553365  SOLV      5762            0.0000000000
     17401      5774  TIP3      OH2            31.4649596015      -21.3603857466        6.3569753365  SOLV      5763            0.0000000000
     17402      5774  TIP3      H1             32.0687196015      -20.8128457466        5.8550753365  SOLV      5763            0.0000000000
     17403      5774  TIP3      H2             30.5951596015      -21.0413457466        6.1163853365  SOLV      5763            0.0000000000
     17404      5775  TIP3      OH2            18.6489896015      -20.8337557466        4.0662553365  SOLV      5764            0.0000000000
     17405      5775  TIP3      H1             17.8719696015      -21.0682657466        3.5588453365  SOLV      5764            0.0000000000
     17406      5775  TIP3      H2             19.1793496015      -21.6305457466        4.0750553365  SOLV      5764            0.0000000000
     17407      5776  TIP3      OH2            17.4853296015      -21.0359457466       -0.1301346635  SOLV      5765            0.0000000000
     17408      5776  TIP3      H1             17.9243996015      -20.4248957466       -0.7217846635  SOLV      5765            0.0000000000
     17409      5776  TIP3      H2             16.8515696015      -20.4975357466        0.3438653365  SOLV      5765            0.0000000000
     17410      5777  TIP3      OH2            23.2282496015      -20.9070457466        3.8795653365  SOLV      5766            0.0000000000
     17411      5777  TIP3      H1             24.1025896015      -20.5186157466        3.8499953365  SOLV      5766            0.0000000000
     17412      5777  TIP3      H2             23.0923296015      -21.1222657466        4.8022853365  SOLV      5766            0.0000000000
     17413      5778  TIP3      OH2            28.7850896015      -20.8770657466        5.5287353365  SOLV      5767            0.0000000000
     17414      5778  TIP3      H1             28.8612496015      -20.7819057466        4.5793353365  SOLV      5767            0.0000000000
     17415      5778  TIP3      H2             28.5100096015      -21.7847757466        5.6576453365  SOLV      5767            0.0000000000
     17416      5779  TIP3      OH2            30.1383496015      -20.8512857466        1.2212353365  SOLV      5768            0.0000000000
     17417      5779  TIP3      H1             29.4354596015      -20.2363657466        1.0113753365  SOLV      5768            0.0000000000
     17418      5779  TIP3      H2             29.6934896015      -21.6886157466        1.3523253365  SOLV      5768            0.0000000000
     17419      5780  TIP3      OH2            17.3862796015       -5.0877257466        0.7673753365  SOLV      5769            0.0000000000
     17420      5780  TIP3      H1             16.7012696015       -5.1258357466        0.0998853365  SOLV      5769            0.0000000000
     17421      5780  TIP3      H2             17.3899996015       -4.1749657466        1.0555853365  SOLV      5769            0.0000000000
     17422      5781  TIP3      OH2            19.3462396015      -19.1197957466       -1.6877246635  SOLV      5770            0.0000000000
     17423      5781  TIP3      H1             19.8375796015      -19.7495557466       -2.2151746635  SOLV      5770            0.0000000000
     17424      5781  TIP3      H2             19.9698696015      -18.8238557466       -1.0246046635  SOLV      5770            0.0000000000
     17425      5782  TIP3      OH2            24.3722496015      -18.8266457466        0.7693253365  SOLV      5771            0.0000000000
     17426      5782  TIP3      H1             24.5503796015      -19.4733257466        1.4521853365  SOLV      5771            0.0000000000
     17427      5782  TIP3      H2             24.3188696015      -17.9928757466        1.2364353365  SOLV      5771            0.0000000000
     17428      5783  TIP3      OH2            26.2506296015       -3.8782357466       -0.8350046635  SOLV      5772            0.0000000000
     17429      5783  TIP3      H1             27.1166496015       -3.5114957466       -1.0131846635  SOLV      5772            0.0000000000
     17430      5783  TIP3      H2             26.0039096015       -4.3174357466       -1.6489246635  SOLV      5772            0.0000000000
     17431      5784  TIP3      OH2            32.9595896015       -4.3152057466        1.8441053365  SOLV      5773            0.0000000000
     17432      5784  TIP3      H1             32.7652996015       -5.0629957466        1.2790653365  SOLV      5773            0.0000000000
     17433      5784  TIP3      H2             32.9205996015       -3.5571957466        1.2608953365  SOLV      5773            0.0000000000
     17434      5785  TIP3      OH2            18.6067896015      -20.3195657466       13.5838753365  SOLV      5774            0.0000000000
     17435      5785  TIP3      H1             18.2406096015      -21.0853057466       14.0263453365  SOLV      5774            0.0000000000
     17436      5785  TIP3      H2             19.5196396015      -20.2905457466       13.8703853365  SOLV      5774            0.0000000000
     17437      5786  TIP3      OH2            20.5798696015      -20.9691257466       15.1195853365  SOLV      5775            0.0000000000
     17438      5786  TIP3      H1             21.4782296015      -21.2431057466       14.9349253365  SOLV      5775            0.0000000000
     17439      5786  TIP3      H2             20.1931796015      -21.7115257466       15.5838453365  SOLV      5775            0.0000000000
     17440      5787  TIP3      OH2            19.2043996015       -4.1676457466       -2.2074146635  SOLV      5776            0.0000000000
     17441      5787  TIP3      H1             18.9368596015       -3.8813557466       -1.3341046635  SOLV      5776            0.0000000000
     17442      5787  TIP3      H2             19.9756596015       -4.7137257466       -2.0551646635  SOLV      5776            0.0000000000
     17443      5788  TIP3      OH2            29.0010996015      -21.6365957466       15.3018653365  SOLV      5777            0.0000000000
     17444      5788  TIP3      H1             29.0778196015      -22.0625257466       16.1556353365  SOLV      5777            0.0000000000
     17445      5788  TIP3      H2             29.8947596015      -21.6231257466       14.9592153365  SOLV      5777            0.0000000000
     17446      5789  TIP3      OH2            32.1772096015       -5.5639657466       13.9942853365  SOLV      5778            0.0000000000
     17447      5789  TIP3      H1             31.3953996015       -5.7501657466       13.4743453365  SOLV      5778            0.0000000000
     17448      5789  TIP3      H2             32.1051996015       -4.6345357466       14.2115353365  SOLV      5778            0.0000000000
     17449      5790  TIP3      OH2            36.1091996015       -9.2659357466        1.3804153365  SOLV      5779            0.0000000000
     17450      5790  TIP3      H1             35.8372896015       -9.0368357466        0.4917053365  SOLV      5779            0.0000000000
     17451      5790  TIP3      H2             36.1547696015       -8.4280557466        1.8409453365  SOLV      5779            0.0000000000
     17452      5791  TIP3      OH2            35.4389196015      -10.1612257466       10.7153853365  SOLV      5780            0.0000000000
     17453      5791  TIP3      H1             34.9377596015      -10.1892857466        9.9003553365  SOLV      5780            0.0000000000
     17454      5791  TIP3      H2             35.4442896015      -11.0669057466       11.0251153365  SOLV      5780            0.0000000000
     17455      5792  TIP3      OH2            36.8849896015       -6.0513457466        9.9108753365  SOLV      5781            0.0000000000
     17456      5792  TIP3      H1             37.1020196015       -6.9831057466        9.8798453365  SOLV      5781            0.0000000000
     17457      5792  TIP3      H2             37.1313396015       -5.7768457466       10.7941553365  SOLV      5781            0.0000000000
     17458      5793  TIP3      OH2            36.8069596015       -6.7765757466        2.9332953365  SOLV      5782            0.0000000000
     17459      5793  TIP3      H1             35.9748196015       -6.3043057466        2.9604353365  SOLV      5782            0.0000000000
     17460      5793  TIP3      H2             37.3527896015       -6.2668157466        2.3346053365  SOLV      5782            0.0000000000
     17461      5794  TIP3      OH2            36.0953296015       -4.1642057466       14.2630953365  SOLV      5783            0.0000000000
     17462      5794  TIP3      H1             36.6355496015       -4.3808057466       15.0230153365  SOLV      5783            0.0000000000
     17463      5794  TIP3      H2             35.6141296015       -4.9696057466       14.0733453365  SOLV      5783            0.0000000000
     17464      5795  TIP3      OH2            34.6787896015       -3.0748257466        3.4796653365  SOLV      5784            0.0000000000
     17465      5795  TIP3      H1             34.0314996015       -3.5366557466        2.9467853365  SOLV      5784            0.0000000000
     17466      5795  TIP3      H2             35.0332496015       -3.7464957466        4.0622853365  SOLV      5784            0.0000000000
     17467      5796  TIP3      OH2            35.5487096015       -4.9941257466        5.2842853365  SOLV      5785            0.0000000000
     17468      5796  TIP3      H1             35.2143896015       -5.8743957466        5.4563053365  SOLV      5785            0.0000000000
     17469      5796  TIP3      H2             35.7709496015       -4.6486257466        6.1488453365  SOLV      5785            0.0000000000
     17470      5797  TIP3      OH2            37.2205396015       -7.1654057466       14.3800353365  SOLV      5786            0.0000000000
     17471      5797  TIP3      H1             36.3997896015       -6.9907557466       13.9195053365  SOLV      5786            0.0000000000
     17472      5797  TIP3      H2             36.9683196015       -7.2389357466       15.3004753365  SOLV      5786            0.0000000000
     17473      5798  TIP3      OH2            37.5764996015       -2.9348957466       10.6859653365  SOLV      5787            0.0000000000
     17474      5798  TIP3      H1             36.8561396015       -2.4947957466       10.2347353365  SOLV      5787            0.0000000000
     17475      5798  TIP3      H2             37.2108996015       -3.1854257466       11.5343653365  SOLV      5787            0.0000000000
     17476      5799  TIP3      OH2            36.9913096015       -4.3116457466        7.5961453365  SOLV      5788            0.0000000000
     17477      5799  TIP3      H1             36.9729096015       -4.7371357466        8.4533753365  SOLV      5788            0.0000000000
     17478      5799  TIP3      H2             37.7960996015       -4.6301457466        7.1873653365  SOLV      5788            0.0000000000
     17479      5800  TIP3      OH2            36.2422796015       -5.0877257466        0.7673753365  SOLV      5789            0.0000000000
     17480      5800  TIP3      H1             35.5572696015       -5.1258357466        0.0998853365  SOLV      5789            0.0000000000
     17481      5800  TIP3      H2             36.2459996015       -4.1749657466        1.0555853365  SOLV      5789            0.0000000000
     17482      5801  TIP3      OH2           -28.8407503985        7.1784742534        4.0250053365  SOLV      5790            0.0000000000
     17483      5801  TIP3      H1            -28.7516403985        8.1222942534        3.8927153365  SOLV      5790            0.0000000000
     17484      5801  TIP3      H2            -29.4789903985        6.9031142534        3.3669453365  SOLV      5790            0.0000000000
     17485      5802  TIP3      OH2           -29.9076203985        6.4335442534        7.4438253365  SOLV      5791            0.0000000000
     17486      5802  TIP3      H1            -29.9458703985        5.7871742534        8.1487853365  SOLV      5791            0.0000000000
     17487      5802  TIP3      H2            -30.2299703985        5.9669842534        6.6726953365  SOLV      5791            0.0000000000
     17488      5803  TIP3      OH2           -26.2016003985        9.3725842534        5.7453353365  SOLV      5792            0.0000000000
     17489      5803  TIP3      H1            -26.6423303985        8.6521842534        6.1958953365  SOLV      5792            0.0000000000
     17490      5803  TIP3      H2            -26.2146303985       10.0933042534        6.3751053365  SOLV      5792            0.0000000000
     17491      5804  TIP3      OH2           -29.0900503985       14.4767542534        5.9573753365  SOLV      5793            0.0000000000
     17492      5804  TIP3      H1            -28.4704103985       13.8002242534        5.6842953365  SOLV      5793            0.0000000000
     17493      5804  TIP3      H2            -29.2983103985       14.2588342534        6.8658653365  SOLV      5793            0.0000000000
     17494      5805  TIP3      OH2           -31.5181803985        8.8656842534        7.8499253365  SOLV      5794            0.0000000000
     17495      5805  TIP3      H1            -31.2143903985        8.1798242534        7.2553353365  SOLV      5794            0.0000000000
     17496      5805  TIP3      H2            -30.7967803985        8.9845542534        8.4677253365  SOLV      5794            0.0000000000
     17497      5806  TIP3      OH2           -22.8552003985        0.4672142534        8.7105453365  SOLV      5795            0.0000000000
     17498      5806  TIP3      H1            -22.8059803985        1.0773342534        9.4464553365  SOLV      5795            0.0000000000
     17499      5806  TIP3      H2            -22.4296903985        0.9283042534        7.9876553365  SOLV      5795            0.0000000000
     17500      5807  TIP3      OH2           -28.3774803985        3.2599242534        8.1774053365  SOLV      5796            0.0000000000
     17501      5807  TIP3      H1            -28.2348903985        2.3136242534        8.1975653365  SOLV      5796            0.0000000000
     17502      5807  TIP3      H2            -28.4835803985        3.4669042534        7.2488953365  SOLV      5796            0.0000000000
     17503      5808  TIP3      OH2           -35.2226503985        1.3615642534        5.4498853365  SOLV      5797            0.0000000000
     17504      5808  TIP3      H1            -35.1795403985        2.2214142534        5.0315153365  SOLV      5797            0.0000000000
     17505      5808  TIP3      H2            -35.6802403985        0.8090342534        4.8162053365  SOLV      5797            0.0000000000
     17506      5809  TIP3      OH2           -27.5003803985        1.4921242534        3.8507153365  SOLV      5798            0.0000000000
     17507      5809  TIP3      H1            -26.8539503985        1.1634442534        4.4754753365  SOLV      5798            0.0000000000
     17508      5809  TIP3      H2            -26.9904403985        2.0100242534        3.2278553365  SOLV      5798            0.0000000000
     17509      5810  TIP3      OH2           -33.4460503985        5.3082742534        5.4271753365  SOLV      5799            0.0000000000
     17510      5810  TIP3      H1            -32.8299503985        4.7818142534        5.9365753365  SOLV      5799            0.0000000000
     17511      5810  TIP3      H2            -34.0321703985        4.6681442534        5.0235353365  SOLV      5799            0.0000000000
     17512      5811  TIP3      OH2           -22.4637403985        1.9451342534       10.9465253365  SOLV      5800            0.0000000000
     17513      5811  TIP3      H1            -23.1522803985        2.6032042534       10.8511853365  SOLV      5800            0.0000000000
     17514      5811  TIP3      H2            -22.4482803985        1.7479242534       11.8830653365  SOLV      5800            0.0000000000
     17515      5812  TIP3      OH2           -36.4124603985        0.2794042534        9.5239653365  SOLV      5801            0.0000000000
     17516      5812  TIP3      H1            -36.6312903985        0.8094642534        8.7575653365  SOLV      5801            0.0000000000
     17517      5812  TIP3      H2            -37.0803703985        0.5059542534       10.1711053365  SOLV      5801            0.0000000000
     17518      5813  TIP3      OH2           -29.0434803985        9.7795142534        3.0678753365  SOLV      5802            0.0000000000
     17519      5813  TIP3      H1            -29.3389703985        9.4567442534        2.2165653365  SOLV      5802            0.0000000000
     17520      5813  TIP3      H2            -29.3677003985       10.6791842534        3.1091353365  SOLV      5802            0.0000000000
     17521      5814  TIP3      OH2           -33.8433203985        7.9549742534        9.8113353365  SOLV      5803            0.0000000000
     17522      5814  TIP3      H1            -34.5834103985        8.5531242534        9.9148553365  SOLV      5803            0.0000000000
     17523      5814  TIP3      H2            -33.1293703985        8.5089342534        9.4956953365  SOLV      5803            0.0000000000
     17524      5815  TIP3      OH2           -25.7365403985        0.7830542534        5.8313053365  SOLV      5804            0.0000000000
     17525      5815  TIP3      H1            -25.9517403985        0.0173942534        6.3639053365  SOLV      5804            0.0000000000
     17526      5815  TIP3      H2            -25.0808003985        1.2555142534        6.3441553365  SOLV      5804            0.0000000000
     17527      5816  TIP3      OH2           -36.8187303985        2.1715842534        7.4761853365  SOLV      5805            0.0000000000
     17528      5816  TIP3      H1            -36.2051003985        2.8043442534        7.8494253365  SOLV      5805            0.0000000000
     17529      5816  TIP3      H2            -36.3066603985        1.6990842534        6.8198753365  SOLV      5805            0.0000000000
     17530      5817  TIP3      OH2           -25.6898303985       11.2116542534        8.0932653365  SOLV      5806            0.0000000000
     17531      5817  TIP3      H1            -26.6314603985       11.2700442534        8.2549553365  SOLV      5806            0.0000000000
     17532      5817  TIP3      H2            -25.4132203985       12.1177042534        7.9562353365  SOLV      5806            0.0000000000
     17533      5818  TIP3      OH2           -25.3891303985       -0.5018157466        9.5106553365  SOLV      5807            0.0000000000
     17534      5818  TIP3      H1            -26.1252103985        0.1088942534        9.4727853365  SOLV      5807            0.0000000000
     17535      5818  TIP3      H2            -24.7057303985       -0.0869157466        8.9842953365  SOLV      5807            0.0000000000
     17536      5819  TIP3      OH2           -32.3859903985       -2.4150857466        6.9764553365  SOLV      5808            0.0000000000
     17537      5819  TIP3      H1            -32.5035703985       -3.3634857466        6.9222853365  SOLV      5808            0.0000000000
     17538      5819  TIP3      H2            -33.2409803985       -2.0824757466        7.2495653365  SOLV      5808            0.0000000000
     17539      5820  TIP3      OH2           -27.4377103985       12.9930042534        4.7184253365  SOLV      5809            0.0000000000
     17540      5820  TIP3      H1            -27.0124803985       12.2857942534        4.2333853365  SOLV      5809            0.0000000000
     17541      5820  TIP3      H2            -27.1207103985       13.7942742534        4.3016453365  SOLV      5809            0.0000000000
     17542      5821  TIP3      OH2           -26.2780603985       10.8938542534        3.2270853365  SOLV      5810            0.0000000000
     17543      5821  TIP3      H1            -26.5355803985       10.2038642534        2.6156753365  SOLV      5810            0.0000000000
     17544      5821  TIP3      H2            -26.2069803985       10.4509742534        4.0726753365  SOLV      5810            0.0000000000
     17545      5822  TIP3      OH2           -24.5920403985        9.4605242534       11.7044353365  SOLV      5811            0.0000000000
     17546      5822  TIP3      H1            -24.4524103985        8.8687742534       10.9651353365  SOLV      5811            0.0000000000
     17547      5822  TIP3      H2            -24.4247603985       10.3331142534       11.3483153365  SOLV      5811            0.0000000000
     17548      5823  TIP3      OH2           -30.1195003985        6.4224742534        1.4770353365  SOLV      5812            0.0000000000
     17549      5823  TIP3      H1            -30.8309503985        6.9574442534        1.1250853365  SOLV      5812            0.0000000000
     17550      5823  TIP3      H2            -29.4285403985        6.4776842534        0.8169253365  SOLV      5812            0.0000000000
     17551      5824  TIP3      OH2           -30.0655803985        4.8799042534       -1.4844646635  SOLV      5813            0.0000000000
     17552      5824  TIP3      H1            -29.3645903985        4.9025942534       -0.8330646635  SOLV      5813            0.0000000000
     17553      5824  TIP3      H2            -29.7632903985        4.2518742534       -2.1405346635  SOLV      5813            0.0000000000
     17554      5825  TIP3      OH2           -22.7501103985        5.8003242534        9.7704753365  SOLV      5814            0.0000000000
     17555      5825  TIP3      H1            -23.4027003985        6.4948842534        9.8595653365  SOLV      5814            0.0000000000
     17556      5825  TIP3      H2            -22.2850803985        6.0104142534        8.9606353365  SOLV      5814            0.0000000000
     17557      5826  TIP3      OH2           -26.7137303985        6.6318042534        2.4286253365  SOLV      5815            0.0000000000
     17558      5826  TIP3      H1            -27.4456303985        6.8601742534        3.0016853365  SOLV      5815            0.0000000000
     17559      5826  TIP3      H2            -26.2665103985        5.9180742534        2.8833753365  SOLV      5815            0.0000000000
     17560      5827  TIP3      OH2           -26.8163803985        4.8060642534       11.4963253365  SOLV      5816            0.0000000000
     17561      5827  TIP3      H1            -26.7364703985        5.5695042534       12.0681753365  SOLV      5816            0.0000000000
     17562      5827  TIP3      H2            -27.4176103985        5.0853042534       10.8058353365  SOLV      5816            0.0000000000
     17563      5828  TIP3      OH2           -35.0683603985        7.2624242534        4.3111253365  SOLV      5817            0.0000000000
     17564      5828  TIP3      H1            -35.3988403985        6.8917642534        3.4928253365  SOLV      5817            0.0000000000
     17565      5828  TIP3      H2            -34.4799503985        6.5918242534        4.6579553365  SOLV      5817            0.0000000000
     17566      5829  TIP3      OH2           -33.7016103985       10.6904842534        6.9923453365  SOLV      5818            0.0000000000
     17567      5829  TIP3      H1            -33.7964803985       10.1117942534        6.2358053365  SOLV      5818            0.0000000000
     17568      5829  TIP3      H2            -32.9722503985       10.3190542534        7.4886253365  SOLV      5818            0.0000000000
     17569      5830  TIP3      OH2           -34.7018103985        6.0309842534        7.9446253365  SOLV      5819            0.0000000000
     17570      5830  TIP3      H1            -34.1365603985        6.1524042534        7.1817453365  SOLV      5819            0.0000000000
     17571      5830  TIP3      H2            -34.3829203985        6.6684842534        8.5834753365  SOLV      5819            0.0000000000
     17572      5831  TIP3      OH2           -28.3925903985       11.5341742534        8.6786753365  SOLV      5820            0.0000000000
     17573      5831  TIP3      H1            -28.6329303985       12.1964842534        9.3265953365  SOLV      5820            0.0000000000
     17574      5831  TIP3      H2            -28.5907703985       10.6996942534        9.1036353365  SOLV      5820            0.0000000000
     17575      5832  TIP3      OH2           -33.8217403985       10.4302542534       12.6618153365  SOLV      5821            0.0000000000
     17576      5832  TIP3      H1            -34.1329903985       11.2125742534       13.1171353365  SOLV      5821            0.0000000000
     17577      5832  TIP3      H2            -34.4717203985       10.2771642534       11.9760153365  SOLV      5821            0.0000000000
     17578      5833  TIP3      OH2           -27.8427803985        5.7940942534        0.1137453365  SOLV      5822            0.0000000000
     17579      5833  TIP3      H1            -27.2632303985        5.9441242534        0.8606353365  SOLV      5822            0.0000000000
     17580      5833  TIP3      H2            -27.4287803985        6.2648342534       -0.6096146635  SOLV      5822            0.0000000000
     17581      5834  TIP3      OH2           -30.1162903985       12.5309442534        3.5490553365  SOLV      5823            0.0000000000
     17582      5834  TIP3      H1            -29.6425303985       12.8265742534        4.3264753365  SOLV      5823            0.0000000000
     17583      5834  TIP3      H2            -30.6793603985       13.2691042534        3.3160153365  SOLV      5823            0.0000000000
     17584      5835  TIP3      OH2           -24.1439403985       -2.4558657466       -0.0732846635  SOLV      5824            0.0000000000
     17585      5835  TIP3      H1            -25.0438703985       -2.3169657466        0.2217753365  SOLV      5824            0.0000000000
     17586      5835  TIP3      H2            -23.8921003985       -1.6244057466       -0.4751146635  SOLV      5824            0.0000000000
     17587      5836  TIP3      OH2           -36.0780903985        6.3318542534        1.9004053365  SOLV      5825            0.0000000000
     17588      5836  TIP3      H1            -36.3699603985        7.1000242534        1.4095353365  SOLV      5825            0.0000000000
     17589      5836  TIP3      H2            -36.7525703985        5.6724742534        1.7375453365  SOLV      5825            0.0000000000
     17590      5837  TIP3      OH2           -22.9548003985       11.9103742534       -1.6968946635  SOLV      5826            0.0000000000
     17591      5837  TIP3      H1            -22.8814503985       12.8493942534       -1.5263646635  SOLV      5826            0.0000000000
     17592      5837  TIP3      H2            -22.0492903985       11.6052342534       -1.7531646635  SOLV      5826            0.0000000000
     17593      5838  TIP3      OH2           -22.0369603985       12.1411242534       13.2817753365  SOLV      5827            0.0000000000
     17594      5838  TIP3      H1            -22.0862803985       11.1859342534       13.2445353365  SOLV      5827            0.0000000000
     17595      5838  TIP3      H2            -22.8637303985       12.4086542534       13.6831553365  SOLV      5827            0.0000000000
     17596      5839  TIP3      OH2           -31.0585603985       11.7150442534       12.1579153365  SOLV      5828            0.0000000000
     17597      5839  TIP3      H1            -30.9711003985       12.5415042534       12.6328253365  SOLV      5828            0.0000000000
     17598      5839  TIP3      H2            -31.9220503985       11.3854242534       12.4068453365  SOLV      5828            0.0000000000
     17599      5840  TIP3      OH2           -27.5423803985       14.6414342534       -1.0337846635  SOLV      5829            0.0000000000
     17600      5840  TIP3      H1            -27.1675403985       13.8970442534       -1.5045246635  SOLV      5829            0.0000000000
     17601      5840  TIP3      H2            -27.5380103985       14.3714942534       -0.1154546635  SOLV      5829            0.0000000000
     17602      5841  TIP3      OH2           -27.8735703985       14.5671442534        1.7154353365  SOLV      5830            0.0000000000
     17603      5841  TIP3      H1            -28.8085903985       14.6673342534        1.8941353365  SOLV      5830            0.0000000000
     17604      5841  TIP3      H2            -27.5933803985       13.8577442534        2.2937553365  SOLV      5830            0.0000000000
     17605      5842  TIP3      OH2           -24.8849803985        3.6343742534       13.7619953365  SOLV      5831            0.0000000000
     17606      5842  TIP3      H1            -25.2923003985        4.1149342534       13.0413253365  SOLV      5831            0.0000000000
     17607      5842  TIP3      H2            -24.8444103985        2.7289742534       13.4540753365  SOLV      5831            0.0000000000
     17608      5843  TIP3      OH2           -35.1172303985       -1.5116357466        7.7540853365  SOLV      5832            0.0000000000
     17609      5843  TIP3      H1            -35.9788603985       -1.5988157466        7.3463753365  SOLV      5832            0.0000000000
     17610      5843  TIP3      H2            -35.1396603985       -0.6556257466        8.1818453365  SOLV      5832            0.0000000000
     17611      5844  TIP3      OH2           -30.4544503985       -1.7895957466       11.1287853365  SOLV      5833            0.0000000000
     17612      5844  TIP3      H1            -30.0341403985       -2.2048857466       11.8818453365  SOLV      5833            0.0000000000
     17613      5844  TIP3      H2            -31.3874903985       -1.9682657466       11.2459853365  SOLV      5833            0.0000000000
     17614      5845  TIP3      OH2           -27.1279603985        1.9659242534       11.9822353365  SOLV      5834            0.0000000000
     17615      5845  TIP3      H1            -27.6420103985        1.8401442534       12.7798353365  SOLV      5834            0.0000000000
     17616      5845  TIP3      H2            -27.2834903985        2.8782342534       11.7378553365  SOLV      5834            0.0000000000
     17617      5846  TIP3      OH2           -26.3654703985        6.8269242534       -2.2564646635  SOLV      5835            0.0000000000
     17618      5846  TIP3      H1            -26.3233903985        6.6043142534       -3.1864646635  SOLV      5835            0.0000000000
     17619      5846  TIP3      H2            -25.5162603985        7.2256342534       -2.0664746635  SOLV      5835            0.0000000000
     17620      5847  TIP3      OH2           -30.7927203985        0.7027442534       -1.5861346635  SOLV      5836            0.0000000000
     17621      5847  TIP3      H1            -31.0462403985        0.7219042534       -0.6633246635  SOLV      5836            0.0000000000
     17622      5847  TIP3      H2            -31.0495103985       -0.1687157466       -1.8875146635  SOLV      5836            0.0000000000
     17623      5848  TIP3      OH2           -35.0262203985        3.4538142534        8.8491053365  SOLV      5837            0.0000000000
     17624      5848  TIP3      H1            -35.6680103985        3.4135442534        9.5581153365  SOLV      5837            0.0000000000
     17625      5848  TIP3      H2            -34.9890203985        4.3802842534        8.6114053365  SOLV      5837            0.0000000000
     17626      5849  TIP3      OH2           -35.0293103985        3.6748242534        3.7611053365  SOLV      5838            0.0000000000
     17627      5849  TIP3      H1            -35.9220203985        3.3344342534        3.7024853365  SOLV      5838            0.0000000000
     17628      5849  TIP3      H2            -34.5786503985        3.2979142534        3.0054253365  SOLV      5838            0.0000000000
     17629      5850  TIP3      OH2           -29.4937603985        4.0908542534        2.5781853365  SOLV      5839            0.0000000000
     17630      5850  TIP3      H1            -29.9027303985        4.9057142534        2.2866653365  SOLV      5839            0.0000000000
     17631      5850  TIP3      H2            -28.7731403985        3.9508642534        1.9638953365  SOLV      5839            0.0000000000
     17632      5851  TIP3      OH2           -30.3916003985        4.2664942534       14.0662553365  SOLV      5840            0.0000000000
     17633      5851  TIP3      H1            -30.9542203985        3.5616542534       14.3870353365  SOLV      5840            0.0000000000
     17634      5851  TIP3      H2            -29.5652603985        4.1456842534       14.5340153365  SOLV      5840            0.0000000000
     17635      5852  TIP3      OH2           -28.4889903985        3.5368942534        5.3921553365  SOLV      5841            0.0000000000
     17636      5852  TIP3      H1            -28.6845403985        4.1425742534        4.6772153365  SOLV      5841            0.0000000000
     17637      5852  TIP3      H2            -28.3077303985        2.7034142534        4.9577853365  SOLV      5841            0.0000000000
     17638      5853  TIP3      OH2           -37.2761703985        3.7741642534       10.7163053365  SOLV      5842            0.0000000000
     17639      5853  TIP3      H1            -37.3142303985        4.1743242534       11.5850153365  SOLV      5842            0.0000000000
     17640      5853  TIP3      H2            -37.7670603985        2.9574042534       10.8065953365  SOLV      5842            0.0000000000
     17641      5854  TIP3      OH2           -33.9104303985        1.1483942534       -2.4850946635  SOLV      5843            0.0000000000
     17642      5854  TIP3      H1            -34.3413603985        0.7034042534       -1.7553546635  SOLV      5843            0.0000000000
     17643      5854  TIP3      H2            -34.6285603985        1.5200242534       -2.9973446635  SOLV      5843            0.0000000000
     17644      5855  TIP3      OH2           -29.2250703985        5.1750242534       10.0633953365  SOLV      5844            0.0000000000
     17645      5855  TIP3      H1            -28.9015903985        4.5439942534        9.4204453365  SOLV      5844            0.0000000000
     17646      5855  TIP3      H2            -29.6651403985        4.6402442534       10.7241353365  SOLV      5844            0.0000000000
     17647      5856  TIP3      OH2           -32.4477803985        1.1025742534        4.8475153365  SOLV      5845            0.0000000000
     17648      5856  TIP3      H1            -33.3586703985        1.1592542534        5.1361153365  SOLV      5845            0.0000000000
     17649      5856  TIP3      H2            -31.9424903985        1.0421242534        5.6582353365  SOLV      5845            0.0000000000
     17650      5857  TIP3      OH2           -37.6194403985        2.7312042534        3.6742753365  SOLV      5846            0.0000000000
     17651      5857  TIP3      H1            -38.5086403985        2.8307542534        3.3342353365  SOLV      5846            0.0000000000
     17652      5857  TIP3      H2            -37.3229503985        1.8895042534        3.3280653365  SOLV      5846            0.0000000000
     17653      5858  TIP3      OH2           -33.9662603985        2.7314642534        1.3307353365  SOLV      5847            0.0000000000
     17654      5858  TIP3      H1            -33.0347103985        2.8604642534        1.5090453365  SOLV      5847            0.0000000000
     17655      5858  TIP3      H2            -34.1812303985        3.4008942534        0.6812053365  SOLV      5847            0.0000000000
     17656      5859  TIP3      OH2           -28.0425903985        0.3372042534        8.1116953365  SOLV      5848            0.0000000000
     17657      5859  TIP3      H1            -28.7194303985        0.4685142534        8.7756653365  SOLV      5848            0.0000000000
     17658      5859  TIP3      H2            -28.5281003985        0.1821542534        7.3014653365  SOLV      5848            0.0000000000
     17659      5860  TIP3      OH2           -35.2922403985        3.9256842534       -1.1026546635  SOLV      5849            0.0000000000
     17660      5860  TIP3      H1            -35.8347303985        3.5460642534       -1.7938946635  SOLV      5849            0.0000000000
     17661      5860  TIP3      H2            -34.4587503985        4.1201542534       -1.5312446635  SOLV      5849            0.0000000000
     17662      5861  TIP3      OH2           -24.7550803985       16.0087442534       14.3884553365  SOLV      5850            0.0000000000
     17663      5861  TIP3      H1            -24.5552103985       16.4329342534       13.5539853365  SOLV      5850            0.0000000000
     17664      5861  TIP3      H2            -24.0997103985       16.3525642534       14.9954953365  SOLV      5850            0.0000000000
     17665      5862  TIP3      OH2           -31.1278103985        3.8898742534        6.7344753365  SOLV      5851            0.0000000000
     17666      5862  TIP3      H1            -30.5634703985        3.3435342534        6.1874353365  SOLV      5851            0.0000000000
     17667      5862  TIP3      H2            -31.2754703985        3.3680642534        7.5232353365  SOLV      5851            0.0000000000
     17668      5863  TIP3      OH2           -36.1258403985        0.0264842534        3.1529553365  SOLV      5852            0.0000000000
     17669      5863  TIP3      H1            -36.4428903985       -0.8759857466        3.1174953365  SOLV      5852            0.0000000000
     17670      5863  TIP3      H2            -35.3444303985        0.0282242534        2.6001153365  SOLV      5852            0.0000000000
     17671      5864  TIP3      OH2           -32.5012203985        2.2784842534        9.1485153365  SOLV      5853            0.0000000000
     17672      5864  TIP3      H1            -33.3366903985        2.7324342534        9.2587553365  SOLV      5853            0.0000000000
     17673      5864  TIP3      H2            -31.9771603985        2.5543342534        9.9005053365  SOLV      5853            0.0000000000
     17674      5865  TIP3      OH2           -31.9569603985        8.4912542534        0.8331553365  SOLV      5854            0.0000000000
     17675      5865  TIP3      H1            -32.7018603985        7.9837842534        0.5109453365  SOLV      5854            0.0000000000
     17676      5865  TIP3      H2            -32.0912403985        8.5400542534        1.7796353365  SOLV      5854            0.0000000000
     17677      5866  TIP3      OH2           -24.8070703985        7.6240742534        9.6199153365  SOLV      5855            0.0000000000
     17678      5866  TIP3      H1            -24.1651903985        8.0807042534        9.0761353365  SOLV      5855            0.0000000000
     17679      5866  TIP3      H2            -25.6373803985        7.7373142534        9.1573253365  SOLV      5855            0.0000000000
     17680      5867  TIP3      OH2           -28.0592803985        1.3052442534       -0.9675846635  SOLV      5856            0.0000000000
     17681      5867  TIP3      H1            -28.9978603985        1.4168042534       -1.1187046635  SOLV      5856            0.0000000000
     17682      5867  TIP3      H2            -27.7620703985        2.1619342534       -0.6610146635  SOLV      5856            0.0000000000
     17683      5868  TIP3      OH2           -30.4377503985        8.6755842534       12.0700653365  SOLV      5857            0.0000000000
     17684      5868  TIP3      H1            -30.7831403985        8.2938242534       12.8770253365  SOLV      5857            0.0000000000
     17685      5868  TIP3      H2            -30.6377403985        9.6089442534       12.1413553365  SOLV      5857            0.0000000000
     17686      5869  TIP3      OH2           -27.3409303985        3.1725142534        0.6931553365  SOLV      5858            0.0000000000
     17687      5869  TIP3      H1            -26.4490303985        3.0350142534        1.0122753365  SOLV      5858            0.0000000000
     17688      5869  TIP3      H2            -27.2845703985        3.9631242534        0.1565053365  SOLV      5858            0.0000000000
     17689      5870  TIP3      OH2           -36.8321303985        7.7862542534        6.6029453365  SOLV      5859            0.0000000000
     17690      5870  TIP3      H1            -36.0874103985        7.7838242534        6.0015953365  SOLV      5859            0.0000000000
     17691      5870  TIP3      H2            -36.7544703985        6.9626342534        7.0844553365  SOLV      5859            0.0000000000
     17692      5871  TIP3      OH2           -29.8315503985        9.9496842534       -0.1413846635  SOLV      5860            0.0000000000
     17693      5871  TIP3      H1            -30.1267103985       10.7764742534        0.2400953365  SOLV      5860            0.0000000000
     17694      5871  TIP3      H2            -30.5345503985        9.3303742534        0.0547553365  SOLV      5860            0.0000000000
     17695      5872  TIP3      OH2           -32.8076703985        5.7639342534       14.1307653365  SOLV      5861            0.0000000000
     17696      5872  TIP3      H1            -33.1035903985        5.5982342534       13.2356753365  SOLV      5861            0.0000000000
     17697      5872  TIP3      H2            -31.8761503985        5.5439642534       14.1201553365  SOLV      5861            0.0000000000
     17698      5873  TIP3      OH2           -28.1873903985       11.1371342534       12.0205653365  SOLV      5862            0.0000000000
     17699      5873  TIP3      H1            -29.0879603985       11.3203942534       11.7529553365  SOLV      5862            0.0000000000
     17700      5873  TIP3      H2            -28.1532803985       11.3960642534       12.9414453365  SOLV      5862            0.0000000000
     17701      5874  TIP3      OH2           -22.4560603985        3.3819242534        0.3878253365  SOLV      5863            0.0000000000
     17702      5874  TIP3      H1            -23.0104303985        2.9857242534       -0.2844246635  SOLV      5863            0.0000000000
     17703      5874  TIP3      H2            -22.3557003985        4.2924442534        0.1101553365  SOLV      5863            0.0000000000
     17704      5875  TIP3      OH2           -22.4928603985        9.1820942534       13.2249753365  SOLV      5864            0.0000000000
     17705      5875  TIP3      H1            -23.3440103985        9.4204742534       12.8576153365  SOLV      5864            0.0000000000
     17706      5875  TIP3      H2            -21.9025203985        9.1654142534       12.4716853365  SOLV      5864            0.0000000000
     17707      5876  TIP3      OH2           -24.1608903985       12.1679642534        0.8530353365  SOLV      5865            0.0000000000
     17708      5876  TIP3      H1            -24.5337803985       11.3423442534        1.1620953365  SOLV      5865            0.0000000000
     17709      5876  TIP3      H2            -23.8835403985       11.9849042534       -0.0446246635  SOLV      5865            0.0000000000
     17710      5877  TIP3      OH2           -27.0005003985        6.9759142534        7.8742253365  SOLV      5866            0.0000000000
     17711      5877  TIP3      H1            -27.9288103985        6.7441042534        7.8471553365  SOLV      5866            0.0000000000
     17712      5877  TIP3      H2            -26.5493903985        6.1988942534        7.5441053365  SOLV      5866            0.0000000000
     17713      5878  TIP3      OH2           -34.4571903985       11.3040742534        4.0070953365  SOLV      5867            0.0000000000
     17714      5878  TIP3      H1            -33.9299703985       12.0775142534        3.8069753365  SOLV      5867            0.0000000000
     17715      5878  TIP3      H2            -35.3373403985       11.5289942534        3.7054953365  SOLV      5867            0.0000000000
     17716      5879  TIP3      OH2           -33.0299603985        8.9670642534        3.5835253365  SOLV      5868            0.0000000000
     17717      5879  TIP3      H1            -33.2709603985        9.8925042534        3.6250553365  SOLV      5868            0.0000000000
     17718      5879  TIP3      H2            -33.7706003985        8.5081942534        3.9799153365  SOLV      5868            0.0000000000
     17719      5880  TIP3      OH2           -32.5153003985       13.1164242534        9.8986353365  SOLV      5869            0.0000000000
     17720      5880  TIP3      H1            -32.1528303985       13.9709842534        9.6650753365  SOLV      5869            0.0000000000
     17721      5880  TIP3      H2            -31.9837803985       12.8245842534       10.6392653365  SOLV      5869            0.0000000000
     17722      5881  TIP3      OH2           -28.9712203985        9.2154942534        9.5991953365  SOLV      5870            0.0000000000
     17723      5881  TIP3      H1            -29.3970903985        8.9876642534       10.4255953365  SOLV      5870            0.0000000000
     17724      5881  TIP3      H2            -28.3906403985        8.4766742534        9.4167253365  SOLV      5870            0.0000000000
     17725      5882  TIP3      OH2           -26.7683303985       10.1445442534       -1.3269046635  SOLV      5871            0.0000000000
     17726      5882  TIP3      H1            -26.4150203985        9.7645242534       -0.5225546635  SOLV      5871            0.0000000000
     17727      5882  TIP3      H2            -27.7169803985       10.0510242534       -1.2399746635  SOLV      5871            0.0000000000
     17728      5883  TIP3      OH2           -26.3128003985       13.7674442534       12.0686753365  SOLV      5872            0.0000000000
     17729      5883  TIP3      H1            -26.9144803985       13.2117342534       11.5733053365  SOLV      5872            0.0000000000
     17730      5883  TIP3      H2            -26.0314303985       14.4344242534       11.4424153365  SOLV      5872            0.0000000000
     17731      5884  TIP3      OH2           -22.2648903985       14.6237942534       -1.1258846635  SOLV      5873            0.0000000000
     17732      5884  TIP3      H1            -21.5211003985       15.2098442534       -1.2657246635  SOLV      5873            0.0000000000
     17733      5884  TIP3      H2            -22.9590803985       15.1923742534       -0.7926446635  SOLV      5873            0.0000000000
     17734      5885  TIP3      OH2           -38.1902103985        1.0002142534       11.4759353365  SOLV      5874            0.0000000000
     17735      5885  TIP3      H1            -39.0829803985        1.3387542534       11.4083353365  SOLV      5874            0.0000000000
     17736      5885  TIP3      H2            -38.2889303985        0.1448242534       11.8940153365  SOLV      5874            0.0000000000
     17737      5886  TIP3      OH2           -25.9024003985        8.8167442534        0.8998853365  SOLV      5875            0.0000000000
     17738      5886  TIP3      H1            -26.1796403985        8.0886742534        1.4559953365  SOLV      5875            0.0000000000
     17739      5886  TIP3      H2            -24.9751003985        8.9359442534        1.1051453365  SOLV      5875            0.0000000000
     17740      5887  TIP3      OH2           -32.6775503985       11.2561542534       -2.8799046635  SOLV      5876            0.0000000000
     17741      5887  TIP3      H1            -32.4385703985       10.5079642534       -3.4270146635  SOLV      5876            0.0000000000
     17742      5887  TIP3      H2            -32.9464203985       10.8683242534       -2.0471246635  SOLV      5876            0.0000000000
     17743      5888  TIP3      OH2           -33.7404903985       10.8265342534       -0.4236446635  SOLV      5877            0.0000000000
     17744      5888  TIP3      H1            -33.5936903985       10.3065142534        0.3664453365  SOLV      5877            0.0000000000
     17745      5888  TIP3      H2            -33.7433203985       11.7332942534       -0.1170546635  SOLV      5877            0.0000000000
     17746      5889  TIP3      OH2           -29.4558703985        0.7412442534       10.3657953365  SOLV      5878            0.0000000000
     17747      5889  TIP3      H1            -28.7570803985        0.8151142534       11.0157653365  SOLV      5878            0.0000000000
     17748      5889  TIP3      H2            -29.8367303985       -0.1232557466       10.5200853365  SOLV      5878            0.0000000000
     17749      5890  TIP3      OH2           -28.6713803985        0.3934142534        1.4630253365  SOLV      5879            0.0000000000
     17750      5890  TIP3      H1            -28.4515503985        0.8649542534        0.6595653365  SOLV      5879            0.0000000000
     17751      5890  TIP3      H2            -28.1129803985        0.7876742534        2.1330853365  SOLV      5879            0.0000000000
     17752      5891  TIP3      OH2           -31.0027703985       12.5238942534        0.3257753365  SOLV      5880            0.0000000000
     17753      5891  TIP3      H1            -31.8191603985       13.0208642534        0.3782053365  SOLV      5880            0.0000000000
     17754      5891  TIP3      H2            -30.4731403985       12.9992442534       -0.3143446635  SOLV      5880            0.0000000000
     17755      5892  TIP3      OH2           -31.4713903985        2.1212942534        2.2978653365  SOLV      5881            0.0000000000
     17756      5892  TIP3      H1            -30.6591303985        2.6256142534        2.3440353365  SOLV      5881            0.0000000000
     17757      5892  TIP3      H2            -31.7160903985        1.9762642534        3.2118253365  SOLV      5881            0.0000000000
     17758      5893  TIP3      OH2           -30.9357503985        3.1075642534       11.4825253365  SOLV      5882            0.0000000000
     17759      5893  TIP3      H1            -30.8167203985        3.6811042534       12.2395653365  SOLV      5882            0.0000000000
     17760      5893  TIP3      H2            -30.2802903985        2.4195042534       11.5973053365  SOLV      5882            0.0000000000
     17761      5894  TIP3      OH2           -30.5877203985       -0.7974057466        3.2359753365  SOLV      5883            0.0000000000
     17762      5894  TIP3      H1            -30.9343703985       -0.1803457466        3.8804053365  SOLV      5883            0.0000000000
     17763      5894  TIP3      H2            -29.9290303985       -0.2968357466        2.7545253365  SOLV      5883            0.0000000000
     17764      5895  TIP3      OH2           -33.6644603985       13.5676142534        0.3074653365  SOLV      5884            0.0000000000
     17765      5895  TIP3      H1            -33.5035903985       14.3673642534       -0.1932746635  SOLV      5884            0.0000000000
     17766      5895  TIP3      H2            -33.8616803985       13.8742142534        1.1925253365  SOLV      5884            0.0000000000
     17767      5896  TIP3      OH2           -34.9300203985        0.2655342534       -0.0767746635  SOLV      5885            0.0000000000
     17768      5896  TIP3      H1            -35.0135403985        1.1538442534        0.2698653365  SOLV      5885            0.0000000000
     17769      5896  TIP3      H2            -34.0399903985        0.0002042534        0.1549053365  SOLV      5885            0.0000000000
     17770      5897  TIP3      OH2           -24.7311703985        1.0145942534       12.3174953365  SOLV      5886            0.0000000000
     17771      5897  TIP3      H1            -25.6475903985        1.2767642534       12.2298653365  SOLV      5886            0.0000000000
     17772      5897  TIP3      H2            -24.3956703985        1.0114942534       11.4210253365  SOLV      5886            0.0000000000
     17773      5898  TIP3      OH2           -26.1290703985        4.7646942534        6.4132253365  SOLV      5887            0.0000000000
     17774      5898  TIP3      H1            -26.9266303985        4.3497142534        6.0847253365  SOLV      5887            0.0000000000
     17775      5898  TIP3      H2            -25.6839603985        4.0740642534        6.9042753365  SOLV      5887            0.0000000000
     17776      5899  TIP3      OH2           -25.0426103985       14.0209442534        8.0355753365  SOLV      5888            0.0000000000
     17777      5899  TIP3      H1            -25.1981803985       14.6993842534        7.3785053365  SOLV      5888            0.0000000000
     17778      5899  TIP3      H2            -24.1099703985       14.0928742534        8.2386353365  SOLV      5888            0.0000000000
     17779      5900  TIP3      OH2           -37.5473703985       -1.8612857466        6.7727153365  SOLV      5889            0.0000000000
     17780      5900  TIP3      H1            -37.7763903985       -1.8020357466        5.8452153365  SOLV      5889            0.0000000000
     17781      5900  TIP3      H2            -37.9900303985       -2.6527357466        7.0791253365  SOLV      5889            0.0000000000
     17782      5901  TIP3      OH2           -34.7313303985       13.6112342534       15.8835153365  SOLV      5890            0.0000000000
     17783      5901  TIP3      H1            -33.9636103985       13.1523142534       16.2244353365  SOLV      5890            0.0000000000
     17784      5901  TIP3      H2            -34.7527103985       13.3852142534       14.9536353365  SOLV      5890            0.0000000000
     17785      5902  TIP3      OH2           -30.6393703985       13.1192942534       -2.7413046635  SOLV      5891            0.0000000000
     17786      5902  TIP3      H1            -31.2832703985       12.4881542534       -2.4199346635  SOLV      5891            0.0000000000
     17787      5902  TIP3      H2            -29.8775403985       12.5880942534       -2.9729546635  SOLV      5891            0.0000000000
     17788      5903  TIP3      OH2           -28.1544603985       11.9913442534       14.6126653365  SOLV      5892            0.0000000000
     17789      5903  TIP3      H1            -28.5055103985       11.1346442534       14.8557053365  SOLV      5892            0.0000000000
     17790      5903  TIP3      H2            -27.4281403985       12.1340142534       15.2195653365  SOLV      5892            0.0000000000
     17791      5904  TIP3      OH2           -26.0350803985       12.9362842534       -2.5075046635  SOLV      5893            0.0000000000
     17792      5904  TIP3      H1            -25.7520403985       12.1418042534       -2.0548146635  SOLV      5893            0.0000000000
     17793      5904  TIP3      H2            -25.2952903985       13.1693842534       -3.0683946635  SOLV      5893            0.0000000000
     17794      5905  TIP3      OH2           -35.0803503985        8.8457742534       -2.6500146635  SOLV      5894            0.0000000000
     17795      5905  TIP3      H1            -35.0159403985        8.0517342534       -2.1193746635  SOLV      5894            0.0000000000
     17796      5905  TIP3      H2            -34.4274303985        8.7270542534       -3.3398146635  SOLV      5894            0.0000000000
     17797      5906  TIP3      OH2           -32.7661103985        8.4720142534       14.6501653365  SOLV      5895            0.0000000000
     17798      5906  TIP3      H1            -33.0947303985        8.7428242534       13.7929053365  SOLV      5895            0.0000000000
     17799      5906  TIP3      H2            -32.6142903985        7.5309942534       14.5626653365  SOLV      5895            0.0000000000
     17800      5907  TIP3      OH2           -29.7280103985        9.8929442534       -2.9142146635  SOLV      5896            0.0000000000
     17801      5907  TIP3      H1            -29.9966003985       10.0731542534       -2.0133246635  SOLV      5896            0.0000000000
     17802      5907  TIP3      H2            -29.9344503985        8.9675642534       -3.0456346635  SOLV      5896            0.0000000000
     17803      5908  TIP3      OH2           -27.0315903985        8.3877442534       12.0333953365  SOLV      5897            0.0000000000
     17804      5908  TIP3      H1            -26.2861103985        8.9761142534       11.9137953365  SOLV      5897            0.0000000000
     17805      5908  TIP3      H2            -27.7889103985        8.9697142534       12.0967053365  SOLV      5897            0.0000000000
     17806      5909  TIP3      OH2           -33.9309703985        6.8183942534       -0.3442146635  SOLV      5898            0.0000000000
     17807      5909  TIP3      H1            -34.3907703985        6.3342242534        0.3416353365  SOLV      5898            0.0000000000
     17808      5909  TIP3      H2            -33.6761003985        6.1499342534       -0.9801646635  SOLV      5898            0.0000000000
     17809      5910  TIP3      OH2           -34.6420403985        4.7111042534       12.0117453365  SOLV      5899            0.0000000000
     17810      5910  TIP3      H1            -35.2604303985        5.3857642534       12.2922153365  SOLV      5899            0.0000000000
     17811      5910  TIP3      H2            -34.2979203985        5.0324942534       11.1783653365  SOLV      5899            0.0000000000
     17812      5911  TIP3      OH2           -32.8599303985        5.0615742534       -2.0818946635  SOLV      5900            0.0000000000
     17813      5911  TIP3      H1            -33.0404303985        4.9066942534       -3.0090646635  SOLV      5900            0.0000000000
     17814      5911  TIP3      H2            -31.9098803985        5.1694442534       -2.0371046635  SOLV      5900            0.0000000000
     17815      5912  TIP3      OH2           -23.4701003985        7.4159942534       -2.6360846635  SOLV      5901            0.0000000000
     17816      5912  TIP3      H1            -23.7436203985        6.9915442534       -3.4492546635  SOLV      5901            0.0000000000
     17817      5912  TIP3      H2            -23.4306903985        8.3474442534       -2.8530446635  SOLV      5901            0.0000000000
     17818      5913  TIP3      OH2           -34.3026703985        2.0661842534       13.0940553365  SOLV      5902            0.0000000000
     17819      5913  TIP3      H1            -34.1525803985        1.3373142534       12.4920253365  SOLV      5902            0.0000000000
     17820      5913  TIP3      H2            -34.3004303985        2.8433542534       12.5352753365  SOLV      5902            0.0000000000
     17821      5914  TIP3      OH2           -33.8901003985        0.4357642534       10.5867953365  SOLV      5903            0.0000000000
     17822      5914  TIP3      H1            -33.3543503985        0.8874342534        9.9347253365  SOLV      5903            0.0000000000
     17823      5914  TIP3      H2            -34.7421403985        0.3277442534       10.1642053365  SOLV      5903            0.0000000000
     17824      5915  TIP3      OH2           -32.3082603985        5.8753842534       10.8263153365  SOLV      5904            0.0000000000
     17825      5915  TIP3      H1            -31.5577803985        5.7191342534       10.2530953365  SOLV      5904            0.0000000000
     17826      5915  TIP3      H2            -32.6474303985        6.7270442534       10.5508653365  SOLV      5904            0.0000000000
     17827      5916  TIP3      OH2           -27.8926403985        3.6905642534       15.8548453365  SOLV      5905            0.0000000000
     17828      5916  TIP3      H1            -27.7005103985        2.7595042534       15.7432953365  SOLV      5905            0.0000000000
     17829      5916  TIP3      H2            -27.0350103985        4.1155142534       15.8443853365  SOLV      5905            0.0000000000
     17830      5917  TIP3      OH2           -26.5759203985        6.4790842534       13.9321153365  SOLV      5906            0.0000000000
     17831      5917  TIP3      H1            -26.8574203985        7.1885442534       13.3544953365  SOLV      5906            0.0000000000
     17832      5917  TIP3      H2            -25.6334903985        6.4063842534       13.7812353365  SOLV      5906            0.0000000000
     17833      5918  TIP3      OH2           -35.8240403985        3.2645342534       15.0056153365  SOLV      5907            0.0000000000
     17834      5918  TIP3      H1            -36.5911403985        2.7320142534       14.7953753365  SOLV      5907            0.0000000000
     17835      5918  TIP3      H2            -35.1451403985        2.9545742534       14.4062453365  SOLV      5907            0.0000000000
     17836      5919  TIP3      OH2           -33.0845503985       -2.1076657466       11.0181553365  SOLV      5908            0.0000000000
     17837      5919  TIP3      H1            -33.1825903985       -1.1613457466       10.9127753365  SOLV      5908            0.0000000000
     17838      5919  TIP3      H2            -33.8269303985       -2.4802857466       10.5425053365  SOLV      5908            0.0000000000
     17839      5920  TIP3      OH2           -31.8205003985        2.2138742534       14.5819953365  SOLV      5909            0.0000000000
     17840      5920  TIP3      H1            -32.0559603985        1.9945442534       15.4834853365  SOLV      5909            0.0000000000
     17841      5920  TIP3      H2            -32.6038103985        2.0069942534       14.0722453365  SOLV      5909            0.0000000000
     17842      5921  TIP3      OH2           -29.1048403985        1.3412242534       13.6573453365  SOLV      5910            0.0000000000
     17843      5921  TIP3      H1            -30.0523003985        1.3731942534       13.7896753365  SOLV      5910            0.0000000000
     17844      5921  TIP3      H2            -28.7921703985        0.7159342534       14.3111653365  SOLV      5910            0.0000000000
     17845      5922  TIP3      OH2           -27.4706903985       -0.0246657466       15.6625353365  SOLV      5911            0.0000000000
     17846      5922  TIP3      H1            -27.5675103985       -0.9769357466       15.6567253365  SOLV      5911            0.0000000000
     17847      5922  TIP3      H2            -27.7923803985        0.2440142534       16.5230853365  SOLV      5911            0.0000000000
     17848      5923  TIP3      OH2           -37.6437603985        1.1849142534       14.7100853365  SOLV      5912            0.0000000000
     17849      5923  TIP3      H1            -37.4320203985        0.4785242534       14.0998353365  SOLV      5912            0.0000000000
     17850      5923  TIP3      H2            -37.7550103985        0.7475142534       15.5542053365  SOLV      5912            0.0000000000
     17851      5924  TIP3      OH2           -32.8627403985       -2.8139257466       13.6894353365  SOLV      5913            0.0000000000
     17852      5924  TIP3      H1            -32.1509003985       -3.4537057466       13.6753453365  SOLV      5913            0.0000000000
     17853      5924  TIP3      H2            -32.9637003985       -2.5470957466       12.7757453365  SOLV      5913            0.0000000000
     17854      5925  TIP3      OH2           -32.5089903985       -1.1310857466       15.7430653365  SOLV      5914            0.0000000000
     17855      5925  TIP3      H1            -32.6407703985       -1.6067057466       14.9229153365  SOLV      5914            0.0000000000
     17856      5925  TIP3      H2            -33.1082503985       -0.3867257466       15.6877753365  SOLV      5914            0.0000000000
     17857      5926  TIP3      OH2           -32.9627603985       15.7519442534       -1.0805346635  SOLV      5915            0.0000000000
     17858      5926  TIP3      H1            -32.0296903985       15.9098142534       -0.9366946635  SOLV      5915            0.0000000000
     17859      5926  TIP3      H2            -33.2268803985       16.4272442534       -1.7053846635  SOLV      5915            0.0000000000
     17860      5927  TIP3      OH2           -22.3268103985       14.6715142534        8.2647653365  SOLV      5916            0.0000000000
     17861      5927  TIP3      H1            -22.3481403985       14.8563542534        9.2037053365  SOLV      5916            0.0000000000
     17862      5927  TIP3      H2            -21.6361903985       15.2399142534        7.9239053365  SOLV      5916            0.0000000000
     17863      5928  TIP3      OH2           -22.7635203985       14.2386242534       11.1866753365  SOLV      5917            0.0000000000
     17864      5928  TIP3      H1            -23.2506503985       13.5030342534       10.8154153365  SOLV      5917            0.0000000000
     17865      5928  TIP3      H2            -22.2142503985       13.8450142534       11.8646153365  SOLV      5917            0.0000000000
     17866      5929  TIP3      OH2           -24.3127903985       10.0284342534       15.8247053365  SOLV      5918            0.0000000000
     17867      5929  TIP3      H1            -25.1786803985        9.9234042534       16.2189353365  SOLV      5918            0.0000000000
     17868      5929  TIP3      H2            -23.9362003985       10.7867642534       16.2711753365  SOLV      5918            0.0000000000
     17869      5930  TIP3      OH2           -23.0118203985        8.2848042534        1.3389553365  SOLV      5919            0.0000000000
     17870      5930  TIP3      H1            -22.1616803985        8.7058942534        1.4661153365  SOLV      5919            0.0000000000
     17871      5930  TIP3      H2            -23.0063103985        7.5448142534        1.9460953365  SOLV      5919            0.0000000000
     17872      5931  TIP3      OH2           -22.6172603985        6.3385442534        3.1625253365  SOLV      5920            0.0000000000
     17873      5931  TIP3      H1            -23.3438003985        5.8588042534        3.5602853365  SOLV      5920            0.0000000000
     17874      5931  TIP3      H2            -22.0359303985        6.5440142534        3.8946853365  SOLV      5920            0.0000000000
     17875      5932  TIP3      OH2           -22.8581403985        9.1232942534        8.1102853365  SOLV      5921            0.0000000000
     17876      5932  TIP3      H1            -22.0247203985        8.7452942534        7.8296453365  SOLV      5921            0.0000000000
     17877      5932  TIP3      H2            -22.7461103985       10.0664142534        7.9911953365  SOLV      5921            0.0000000000
     17878      5933  TIP3      OH2           -24.3719103985       12.0010442534       10.4171253365  SOLV      5922            0.0000000000
     17879      5933  TIP3      H1            -25.0193803985       12.3261942534       11.0426453365  SOLV      5922            0.0000000000
     17880      5933  TIP3      H2            -24.8895103985       11.5608142534        9.7429553365  SOLV      5922            0.0000000000
     17881      5934  TIP3      OH2           -22.3489503985        6.2393942534       -0.4463446635  SOLV      5923            0.0000000000
     17882      5934  TIP3      H1            -22.8708403985        6.5958042534       -1.1652546635  SOLV      5923            0.0000000000
     17883      5934  TIP3      H2            -22.3820303985        6.9141742534        0.2317453365  SOLV      5923            0.0000000000
     17884      5935  TIP3      OH2           -24.0000503985        3.4789542534       -1.8956346635  SOLV      5924            0.0000000000
     17885      5935  TIP3      H1            -23.9036103985        4.1456542534       -2.5756646635  SOLV      5924            0.0000000000
     17886      5935  TIP3      H2            -24.1400903985        2.6635842534       -2.3770846635  SOLV      5924            0.0000000000
     17887      5936  TIP3      OH2           -24.8305803985        4.8591942534        3.7253953365  SOLV      5925            0.0000000000
     17888      5936  TIP3      H1            -24.9807003985        3.9140542534        3.7051753365  SOLV      5925            0.0000000000
     17889      5936  TIP3      H2            -25.1841303985        5.1403342534        4.5693053365  SOLV      5925            0.0000000000
     17890      5937  TIP3      OH2           -23.9742903985        6.8295242534       13.3642253365  SOLV      5926            0.0000000000
     17891      5937  TIP3      H1            -23.3915603985        6.0947542534       13.5559453365  SOLV      5926            0.0000000000
     17892      5937  TIP3      H2            -23.4103603985        7.6015542534       13.4108053365  SOLV      5926            0.0000000000
     17893      5938  TIP3      OH2           -22.4775803985        4.7321042534       14.0487653365  SOLV      5927            0.0000000000
     17894      5938  TIP3      H1            -23.3409103985        4.3533142534       13.8832353365  SOLV      5927            0.0000000000
     17895      5938  TIP3      H2            -21.8732103985        3.9935842534       13.9743453365  SOLV      5927            0.0000000000
     17896      5939  TIP3      OH2           -24.7526703985        0.8869342534       -2.7780846635  SOLV      5928            0.0000000000
     17897      5939  TIP3      H1            -24.1420903985        0.5156142534       -2.1412646635  SOLV      5928            0.0000000000
     17898      5939  TIP3      H2            -25.5895203985        0.4656242534       -2.5820846635  SOLV      5928            0.0000000000
     17899      5940  TIP3      OH2           -25.1201003985        2.4417742534        2.1879053365  SOLV      5929            0.0000000000
     17900      5940  TIP3      H1            -24.8403903985        1.5348142534        2.3120753365  SOLV      5929            0.0000000000
     17901      5940  TIP3      H2            -24.3609303985        2.8759242534        1.7988253365  SOLV      5929            0.0000000000
     17902      5941  TIP3      OH2           -24.5082703985        3.0235142534        7.6237953365  SOLV      5930            0.0000000000
     17903      5941  TIP3      H1            -23.5754703985        3.2355042534        7.5893953365  SOLV      5930            0.0000000000
     17904      5941  TIP3      H2            -24.7435203985        3.1247242534        8.5460953365  SOLV      5930            0.0000000000
     17905      5942  TIP3      OH2           -24.4790803985        3.7600442534       10.3997353365  SOLV      5931            0.0000000000
     17906      5942  TIP3      H1            -25.3219503985        4.0280842534       10.7657153365  SOLV      5931            0.0000000000
     17907      5942  TIP3      H2            -24.0366503985        4.5822342534       10.1888453365  SOLV      5931            0.0000000000
     17908      5943  TIP3      OH2           -22.1959203985       -2.2599357466       15.7532353365  SOLV      5932            0.0000000000
     17909      5943  TIP3      H1            -21.8462203985       -2.9135857466       15.1477053365  SOLV      5932            0.0000000000
     17910      5943  TIP3      H2            -22.0489703985       -1.4225257466       15.3134953365  SOLV      5932            0.0000000000
     17911      5944  TIP3      OH2           -24.5066203985       -0.2952957466        2.2361053365  SOLV      5933            0.0000000000
     17912      5944  TIP3      H1            -24.3241203985       -0.7441457466        3.0616053365  SOLV      5933            0.0000000000
     17913      5944  TIP3      H2            -25.1063303985       -0.8798557466        1.7725653365  SOLV      5933            0.0000000000
     17914      5945  TIP3      OH2           -38.9766103985        0.5200742534        6.7679453365  SOLV      5934            0.0000000000
     17915      5945  TIP3      H1            -38.5314503985       -0.2716757466        7.0699153365  SOLV      5934            0.0000000000
     17916      5945  TIP3      H2            -38.5103103985        1.2365942534        7.1985053365  SOLV      5934            0.0000000000
     17917      5946  TIP3      OH2           -22.6762003985       -0.1504757466       14.1023653365  SOLV      5935            0.0000000000
     17918      5946  TIP3      H1            -23.5936303985        0.1202342534       14.0667153365  SOLV      5935            0.0000000000
     17919      5946  TIP3      H2            -22.5532603985       -0.6856357466       13.3183353365  SOLV      5935            0.0000000000
     17920      5947  TIP3      OH2           -22.6400003985       -0.2274857466       -1.2358646635  SOLV      5936            0.0000000000
     17921      5947  TIP3      H1            -22.2277403985       -0.9489157466       -1.7110646635  SOLV      5936            0.0000000000
     17922      5947  TIP3      H2            -21.9583503985        0.4419742534       -1.1774346635  SOLV      5936            0.0000000000
     17923      5948  TIP3      OH2           -25.5882103985       14.7614542534        3.8369453365  SOLV      5937            0.0000000000
     17924      5948  TIP3      H1            -24.9359203985       14.4136642534        3.2288553365  SOLV      5937            0.0000000000
     17925      5948  TIP3      H2            -25.0778303985       15.2497742534        4.4829153365  SOLV      5937            0.0000000000
     17926      5949  TIP3      OH2           -30.9380303985       14.0637142534       13.5978053365  SOLV      5938            0.0000000000
     17927      5949  TIP3      H1            -30.7532803985       13.7303242534       14.4758353365  SOLV      5938            0.0000000000
     17928      5949  TIP3      H2            -30.0915803985       14.3735742534       13.2757253365  SOLV      5938            0.0000000000
     17929      5950  TIP3      OH2           -28.5929903985       15.3496042534       12.8419453365  SOLV      5939            0.0000000000
     17930      5950  TIP3      H1            -27.9161003985       14.7168342534       12.6018653365  SOLV      5939            0.0000000000
     17931      5950  TIP3      H2            -28.2711103985       15.7506542534       13.6492753365  SOLV      5939            0.0000000000
     17932      5951  TIP3      OH2           -23.6756103985       -2.0608457466       11.9214453365  SOLV      5940            0.0000000000
     17933      5951  TIP3      H1            -24.4882603985       -1.7358157466       11.5339153365  SOLV      5940            0.0000000000
     17934      5951  TIP3      H2            -23.4427603985       -2.8209957466       11.3883553365  SOLV      5940            0.0000000000
     17935      5952  TIP3      OH2           -30.6696803985       15.4093842534        8.8912853365  SOLV      5941            0.0000000000
     17936      5952  TIP3      H1            -31.1262803985       15.9383542534        8.2371253365  SOLV      5941            0.0000000000
     17937      5952  TIP3      H2            -30.5068803985       16.0125242534        9.6165153365  SOLV      5941            0.0000000000
     17938      5953  TIP3      OH2           -28.3420503985       14.2873442534        9.8363153365  SOLV      5942            0.0000000000
     17939      5953  TIP3      H1            -29.2466803985       14.4523642534        9.5705253365  SOLV      5942            0.0000000000
     17940      5953  TIP3      H2            -27.9131903985       15.1405642534        9.7706553365  SOLV      5942            0.0000000000
     17941      5954  TIP3      OH2           -25.7378603985       15.8572542534       10.1310953365  SOLV      5943            0.0000000000
     17942      5954  TIP3      H1            -25.9196603985       16.7731442534        9.9205853365  SOLV      5943            0.0000000000
     17943      5954  TIP3      H2            -25.5610803985       15.4469642534        9.2845553365  SOLV      5943            0.0000000000
     17944      5955  TIP3      OH2           -33.7541303985       13.7241542534        7.0999353365  SOLV      5944            0.0000000000
     17945      5955  TIP3      H1            -33.5415603985       12.8360542534        6.8130253365  SOLV      5944            0.0000000000
     17946      5955  TIP3      H2            -33.6896203985       13.6899242534        8.0543353365  SOLV      5944            0.0000000000
     17947      5956  TIP3      OH2           -30.2457603985       -0.6117857466        6.2442653365  SOLV      5945            0.0000000000
     17948      5956  TIP3      H1            -30.9200803985       -1.2412257466        6.4998453365  SOLV      5945            0.0000000000
     17949      5956  TIP3      H2            -29.6818403985       -1.0958957466        5.6410553365  SOLV      5945            0.0000000000
     17950      5957  TIP3      OH2           -25.1030403985       -2.5043857466        6.3569753365  SOLV      5946            0.0000000000
     17951      5957  TIP3      H1            -24.4992803985       -1.9568457466        5.8550753365  SOLV      5946            0.0000000000
     17952      5957  TIP3      H2            -25.9728403985       -2.1853457466        6.1163853365  SOLV      5946            0.0000000000
     17953      5958  TIP3      OH2           -23.3760003985       -1.3655157466        4.6900653365  SOLV      5947            0.0000000000
     17954      5958  TIP3      H1            -22.7642503985       -1.8799457466        4.1634253365  SOLV      5947            0.0000000000
     17955      5958  TIP3      H2            -22.9936603985       -0.4883057466        4.7135053365  SOLV      5947            0.0000000000
     17956      5959  TIP3      OH2           -37.9190103985       -1.9777557466        4.0662553365  SOLV      5948            0.0000000000
     17957      5959  TIP3      H1            -38.6960303985       -2.2122657466        3.5588453365  SOLV      5948            0.0000000000
     17958      5959  TIP3      H2            -37.3886503985       -2.7745457466        4.0750553365  SOLV      5948            0.0000000000
     17959      5960  TIP3      OH2           -39.0826703985       -2.1799457466       -0.1301346635  SOLV      5949            0.0000000000
     17960      5960  TIP3      H1            -38.6436003985       -1.5688957466       -0.7217846635  SOLV      5949            0.0000000000
     17961      5960  TIP3      H2            -39.7164303985       -1.6415357466        0.3438653365  SOLV      5949            0.0000000000
     17962      5961  TIP3      OH2           -33.3397503985       -2.0510457466        3.8795653365  SOLV      5950            0.0000000000
     17963      5961  TIP3      H1            -32.4654103985       -1.6626157466        3.8499953365  SOLV      5950            0.0000000000
     17964      5961  TIP3      H2            -33.4756703985       -2.2662657466        4.8022853365  SOLV      5950            0.0000000000
     17965      5962  TIP3      OH2           -27.7829103985       -2.0210657466        5.5287353365  SOLV      5951            0.0000000000
     17966      5962  TIP3      H1            -27.7067503985       -1.9259057466        4.5793353365  SOLV      5951            0.0000000000
     17967      5962  TIP3      H2            -28.0579903985       -2.9287757466        5.6576453365  SOLV      5951            0.0000000000
     17968      5963  TIP3      OH2           -26.4296503985       -1.9952857466        1.2212353365  SOLV      5952            0.0000000000
     17969      5963  TIP3      H1            -27.1325403985       -1.3803657466        1.0113753365  SOLV      5952            0.0000000000
     17970      5963  TIP3      H2            -26.8745103985       -2.8326157466        1.3523253365  SOLV      5952            0.0000000000
     17971      5964  TIP3      OH2           -37.2217603985       -0.2637957466       -1.6877246635  SOLV      5953            0.0000000000
     17972      5964  TIP3      H1            -36.7304203985       -0.8935557466       -2.2151746635  SOLV      5953            0.0000000000
     17973      5964  TIP3      H2            -36.5981303985        0.0321442534       -1.0246046635  SOLV      5953            0.0000000000
     17974      5965  TIP3      OH2           -32.1957503985        0.0293542534        0.7693253365  SOLV      5954            0.0000000000
     17975      5965  TIP3      H1            -32.0176203985       -0.6173257466        1.4521853365  SOLV      5954            0.0000000000
     17976      5965  TIP3      H2            -32.2491303985        0.8631242534        1.2364353365  SOLV      5954            0.0000000000
     17977      5966  TIP3      OH2           -30.3173703985       14.9777642534       -0.8350046635  SOLV      5955            0.0000000000
     17978      5966  TIP3      H1            -29.4513503985       15.3445042534       -1.0131846635  SOLV      5955            0.0000000000
     17979      5966  TIP3      H2            -30.5640903985       14.5385642534       -1.6489246635  SOLV      5955            0.0000000000
     17980      5967  TIP3      OH2           -23.6084103985       14.5407942534        1.8441053365  SOLV      5956            0.0000000000
     17981      5967  TIP3      H1            -23.8027003985       13.7930042534        1.2790653365  SOLV      5956            0.0000000000
     17982      5967  TIP3      H2            -23.6474003985       15.2988042534        1.2608953365  SOLV      5956            0.0000000000
     17983      5968  TIP3      OH2           -37.9612103985       -1.4635657466       13.5838753365  SOLV      5957            0.0000000000
     17984      5968  TIP3      H1            -38.3273903985       -2.2293057466       14.0263453365  SOLV      5957            0.0000000000
     17985      5968  TIP3      H2            -37.0483603985       -1.4345457466       13.8703853365  SOLV      5957            0.0000000000
     17986      5969  TIP3      OH2           -35.9881303985       -2.1131257466       15.1195853365  SOLV      5958            0.0000000000
     17987      5969  TIP3      H1            -35.0897703985       -2.3871057466       14.9349253365  SOLV      5958            0.0000000000
     17988      5969  TIP3      H2            -36.3748203985       -2.8555257466       15.5838453365  SOLV      5958            0.0000000000
     17989      5970  TIP3      OH2           -24.3907903985       13.2920342534       13.9942853365  SOLV      5959            0.0000000000
     17990      5970  TIP3      H1            -25.1726003985       13.1058342534       13.4743453365  SOLV      5959            0.0000000000
     17991      5970  TIP3      H2            -24.4628003985       14.2214642534       14.2115353365  SOLV      5959            0.0000000000
     17992      5971  TIP3      OH2            -9.9847503985        7.1784742534        4.0250053365  SOLV      5960            0.0000000000
     17993      5971  TIP3      H1             -9.8956403985        8.1222942534        3.8927153365  SOLV      5960            0.0000000000
     17994      5971  TIP3      H2            -10.6229903985        6.9031142534        3.3669453365  SOLV      5960            0.0000000000
     17995      5972  TIP3      OH2           -11.0516203985        6.4335442534        7.4438253365  SOLV      5961            0.0000000000
     17996      5972  TIP3      H1            -11.0898703985        5.7871742534        8.1487853365  SOLV      5961            0.0000000000
     17997      5972  TIP3      H2            -11.3739703985        5.9669842534        6.6726953365  SOLV      5961            0.0000000000
     17998      5973  TIP3      OH2           -18.6831203985        6.0477542534        9.0368153365  SOLV      5962            0.0000000000
     17999      5973  TIP3      H1            -18.6419103985        5.4220842534        9.7600553365  SOLV      5962            0.0000000000
     18000      5973  TIP3      H2            -17.9803503985        6.6716142534        9.2188553365  SOLV      5962            0.0000000000
     18001      5974  TIP3      OH2            -7.3456003985        9.3725842534        5.7453353365  SOLV      5963            0.0000000000
     18002      5974  TIP3      H1             -7.7863303985        8.6521842534        6.1958953365  SOLV      5963            0.0000000000
     18003      5974  TIP3      H2             -7.3586303985       10.0933042534        6.3751053365  SOLV      5963            0.0000000000
     18004      5975  TIP3      OH2           -17.7598103985       10.4976442534        7.5717253365  SOLV      5964            0.0000000000
     18005      5975  TIP3      H1            -18.1292903985        9.6956942534        7.2021553365  SOLV      5964            0.0000000000
     18006      5975  TIP3      H2            -16.8187003985       10.3291342534        7.6180653365  SOLV      5964            0.0000000000
     18007      5976  TIP3      OH2           -21.1497603985        4.1579042534        2.9646053365  SOLV      5965            0.0000000000
     18008      5976  TIP3      H1            -21.5974203985        5.0037742534        2.9462553365  SOLV      5965            0.0000000000
     18009      5976  TIP3      H2            -21.7106403985        3.5783242534        2.4491153365  SOLV      5965            0.0000000000
     18010      5977  TIP3      OH2           -20.4391503985        6.3198642534        5.0904053365  SOLV      5966            0.0000000000
     18011      5977  TIP3      H1            -20.2258003985        5.5500242534        5.6177053365  SOLV      5966            0.0000000000
     18012      5977  TIP3      H2            -19.7013903985        6.4095342534        4.4871653365  SOLV      5966            0.0000000000
     18013      5978  TIP3      OH2           -10.2340503985       14.4767542534        5.9573753365  SOLV      5967            0.0000000000
     18014      5978  TIP3      H1             -9.6144103985       13.8002242534        5.6842953365  SOLV      5967            0.0000000000
     18015      5978  TIP3      H2            -10.4423103985       14.2588342534        6.8658653365  SOLV      5967            0.0000000000
     18016      5979  TIP3      OH2           -12.6621803985        8.8656842534        7.8499253365  SOLV      5968            0.0000000000
     18017      5979  TIP3      H1            -12.3583903985        8.1798242534        7.2553353365  SOLV      5968            0.0000000000
     18018      5979  TIP3      H2            -11.9407803985        8.9845542534        8.4677253365  SOLV      5968            0.0000000000
     18019      5980  TIP3      OH2            -3.9992003985        0.4672142534        8.7105453365  SOLV      5969            0.0000000000
     18020      5980  TIP3      H1             -3.9499803985        1.0773342534        9.4464553365  SOLV      5969            0.0000000000
     18021      5980  TIP3      H2             -3.5736903985        0.9283042534        7.9876553365  SOLV      5969            0.0000000000
     18022      5981  TIP3      OH2            -9.5214803985        3.2599242534        8.1774053365  SOLV      5970            0.0000000000
     18023      5981  TIP3      H1             -9.3788903985        2.3136242534        8.1975653365  SOLV      5970            0.0000000000
     18024      5981  TIP3      H2             -9.6275803985        3.4669042534        7.2488953365  SOLV      5970            0.0000000000
     18025      5982  TIP3      OH2           -16.3666503985        1.3615642534        5.4498853365  SOLV      5971            0.0000000000
     18026      5982  TIP3      H1            -16.3235403985        2.2214142534        5.0315153365  SOLV      5971            0.0000000000
     18027      5982  TIP3      H2            -16.8242403985        0.8090342534        4.8162053365  SOLV      5971            0.0000000000
     18028      5983  TIP3      OH2            -8.6443803985        1.4921242534        3.8507153365  SOLV      5972            0.0000000000
     18029      5983  TIP3      H1             -7.9979503985        1.1634442534        4.4754753365  SOLV      5972            0.0000000000
     18030      5983  TIP3      H2             -8.1344403985        2.0100242534        3.2278553365  SOLV      5972            0.0000000000
     18031      5984  TIP3      OH2           -19.7465003985        3.7581442534        6.2120253365  SOLV      5973            0.0000000000
     18032      5984  TIP3      H1            -19.0928403985        3.2083142534        6.6440353365  SOLV      5973            0.0000000000
     18033      5984  TIP3      H2            -19.7225703985        3.4840442534        5.2952253365  SOLV      5973            0.0000000000
     18034      5985  TIP3      OH2           -14.5900503985        5.3082742534        5.4271753365  SOLV      5974            0.0000000000
     18035      5985  TIP3      H1            -13.9739503985        4.7818142534        5.9365753365  SOLV      5974            0.0000000000
     18036      5985  TIP3      H2            -15.1761703985        4.6681442534        5.0235353365  SOLV      5974            0.0000000000
     18037      5986  TIP3      OH2            -3.6077403985        1.9451342534       10.9465253365  SOLV      5975            0.0000000000
     18038      5986  TIP3      H1             -4.2962803985        2.6032042534       10.8511853365  SOLV      5975            0.0000000000
     18039      5986  TIP3      H2             -3.5922803985        1.7479242534       11.8830653365  SOLV      5975            0.0000000000
     18040      5987  TIP3      OH2           -17.5564603985        0.2794042534        9.5239653365  SOLV      5976            0.0000000000
     18041      5987  TIP3      H1            -17.7752903985        0.8094642534        8.7575653365  SOLV      5976            0.0000000000
     18042      5987  TIP3      H2            -18.2243703985        0.5059542534       10.1711053365  SOLV      5976            0.0000000000
     18043      5988  TIP3      OH2           -10.1874803985        9.7795142534        3.0678753365  SOLV      5977            0.0000000000
     18044      5988  TIP3      H1            -10.4829703985        9.4567442534        2.2165653365  SOLV      5977            0.0000000000
     18045      5988  TIP3      H2            -10.5117003985       10.6791842534        3.1091353365  SOLV      5977            0.0000000000
     18046      5989  TIP3      OH2           -14.9873203985        7.9549742534        9.8113353365  SOLV      5978            0.0000000000
     18047      5989  TIP3      H1            -15.7274103985        8.5531242534        9.9148553365  SOLV      5978            0.0000000000
     18048      5989  TIP3      H2            -14.2733703985        8.5089342534        9.4956953365  SOLV      5978            0.0000000000
     18049      5990  TIP3      OH2            -6.8805403985        0.7830542534        5.8313053365  SOLV      5979            0.0000000000
     18050      5990  TIP3      H1             -7.0957403985        0.0173942534        6.3639053365  SOLV      5979            0.0000000000
     18051      5990  TIP3      H2             -6.2248003985        1.2555142534        6.3441553365  SOLV      5979            0.0000000000
     18052      5991  TIP3      OH2           -17.9627303985        2.1715842534        7.4761853365  SOLV      5980            0.0000000000
     18053      5991  TIP3      H1            -17.3491003985        2.8043442534        7.8494253365  SOLV      5980            0.0000000000
     18054      5991  TIP3      H2            -17.4506603985        1.6990842534        6.8198753365  SOLV      5980            0.0000000000
     18055      5992  TIP3      OH2           -16.5798903985        9.9192742534       10.5984853365  SOLV      5981            0.0000000000
     18056      5992  TIP3      H1            -16.5851303985       10.7986242534       10.2204153365  SOLV      5981            0.0000000000
     18057      5992  TIP3      H2            -17.4334803985        9.8356842534       11.0234753365  SOLV      5981            0.0000000000
     18058      5993  TIP3      OH2           -20.4588003985        9.5900642534        1.3804153365  SOLV      5982            0.0000000000
     18059      5993  TIP3      H1            -20.7307103985        9.8191642534        0.4917053365  SOLV      5982            0.0000000000
     18060      5993  TIP3      H2            -20.4132303985       10.4279442534        1.8409453365  SOLV      5982            0.0000000000
     18061      5994  TIP3      OH2            -6.8338303985       11.2116542534        8.0932653365  SOLV      5983            0.0000000000
     18062      5994  TIP3      H1             -7.7754603985       11.2700442534        8.2549553365  SOLV      5983            0.0000000000
     18063      5994  TIP3      H2             -6.5572203985       12.1177042534        7.9562353365  SOLV      5983            0.0000000000
     18064      5995  TIP3      OH2            -6.5331303985       -0.5018157466        9.5106553365  SOLV      5984            0.0000000000
     18065      5995  TIP3      H1             -7.2692103985        0.1088942534        9.4727853365  SOLV      5984            0.0000000000
     18066      5995  TIP3      H2             -5.8497303985       -0.0869157466        8.9842953365  SOLV      5984            0.0000000000
     18067      5996  TIP3      OH2           -13.5299903985       -2.4150857466        6.9764553365  SOLV      5985            0.0000000000
     18068      5996  TIP3      H1            -13.6475703985       -3.3634857466        6.9222853365  SOLV      5985            0.0000000000
     18069      5996  TIP3      H2            -14.3849803985       -2.0824757466        7.2495653365  SOLV      5985            0.0000000000
     18070      5997  TIP3      OH2            -8.5817103985       12.9930042534        4.7184253365  SOLV      5986            0.0000000000
     18071      5997  TIP3      H1             -8.1564803985       12.2857942534        4.2333853365  SOLV      5986            0.0000000000
     18072      5997  TIP3      H2             -8.2647103985       13.7942742534        4.3016453365  SOLV      5986            0.0000000000
     18073      5998  TIP3      OH2            -7.4220603985       10.8938542534        3.2270853365  SOLV      5987            0.0000000000
     18074      5998  TIP3      H1             -7.6795803985       10.2038642534        2.6156753365  SOLV      5987            0.0000000000
     18075      5998  TIP3      H2             -7.3509803985       10.4509742534        4.0726753365  SOLV      5987            0.0000000000
     18076      5999  TIP3      OH2            -5.7360403985        9.4605242534       11.7044353365  SOLV      5988            0.0000000000
     18077      5999  TIP3      H1             -5.5964103985        8.8687742534       10.9651353365  SOLV      5988            0.0000000000
     18078      5999  TIP3      H2             -5.5687603985       10.3331142534       11.3483153365  SOLV      5988            0.0000000000
     18079      6000  TIP3      OH2           -11.2635003985        6.4224742534        1.4770353365  SOLV      5989            0.0000000000
     18080      6000  TIP3      H1            -11.9749503985        6.9574442534        1.1250853365  SOLV      5989            0.0000000000
     18081      6000  TIP3      H2            -10.5725403985        6.4776842534        0.8169253365  SOLV      5989            0.0000000000
     18082      6001  TIP3      OH2           -11.2095803985        4.8799042534       -1.4844646635  SOLV      5990            0.0000000000
     18083      6001  TIP3      H1            -10.5085903985        4.9025942534       -0.8330646635  SOLV      5990            0.0000000000
     18084      6001  TIP3      H2            -10.9072903985        4.2518742534       -2.1405346635  SOLV      5990            0.0000000000
     18085      6002  TIP3      OH2            -3.8941103985        5.8003242534        9.7704753365  SOLV      5991            0.0000000000
     18086      6002  TIP3      H1             -4.5467003985        6.4948842534        9.8595653365  SOLV      5991            0.0000000000
     18087      6002  TIP3      H2             -3.4290803985        6.0104142534        8.9606353365  SOLV      5991            0.0000000000
     18088      6003  TIP3      OH2            -7.8577303985        6.6318042534        2.4286253365  SOLV      5992            0.0000000000
     18089      6003  TIP3      H1             -8.5896303985        6.8601742534        3.0016853365  SOLV      5992            0.0000000000
     18090      6003  TIP3      H2             -7.4105103985        5.9180742534        2.8833753365  SOLV      5992            0.0000000000
     18091      6004  TIP3      OH2            -7.9603803985        4.8060642534       11.4963253365  SOLV      5993            0.0000000000
     18092      6004  TIP3      H1             -7.8804703985        5.5695042534       12.0681753365  SOLV      5993            0.0000000000
     18093      6004  TIP3      H2             -8.5616103985        5.0853042534       10.8058353365  SOLV      5993            0.0000000000
     18094      6005  TIP3      OH2           -14.8456103985       10.6904842534        6.9923453365  SOLV      5994            0.0000000000
     18095      6005  TIP3      H1            -14.9404803985       10.1117942534        6.2358053365  SOLV      5994            0.0000000000
     18096      6005  TIP3      H2            -14.1162503985       10.3190542534        7.4886253365  SOLV      5994            0.0000000000
     18097      6006  TIP3      OH2           -15.8458103985        6.0309842534        7.9446253365  SOLV      5995            0.0000000000
     18098      6006  TIP3      H1            -15.2805603985        6.1524042534        7.1817453365  SOLV      5995            0.0000000000
     18099      6006  TIP3      H2            -15.5269203985        6.6684842534        8.5834753365  SOLV      5995            0.0000000000
     18100      6007  TIP3      OH2            -9.5365903985       11.5341742534        8.6786753365  SOLV      5996            0.0000000000
     18101      6007  TIP3      H1             -9.7769303985       12.1964842534        9.3265953365  SOLV      5996            0.0000000000
     18102      6007  TIP3      H2             -9.7347703985       10.6996942534        9.1036353365  SOLV      5996            0.0000000000
     18103      6008  TIP3      OH2           -14.9657403985       10.4302542534       12.6618153365  SOLV      5997            0.0000000000
     18104      6008  TIP3      H1            -15.2769903985       11.2125742534       13.1171353365  SOLV      5997            0.0000000000
     18105      6008  TIP3      H2            -15.6157203985       10.2771642534       11.9760153365  SOLV      5997            0.0000000000
     18106      6009  TIP3      OH2            -8.9867803985        5.7940942534        0.1137453365  SOLV      5998            0.0000000000
     18107      6009  TIP3      H1             -8.4072303985        5.9441242534        0.8606353365  SOLV      5998            0.0000000000
     18108      6009  TIP3      H2             -8.5727803985        6.2648342534       -0.6096146635  SOLV      5998            0.0000000000
     18109      6010  TIP3      OH2           -18.0457503985        6.6283642534       11.8903853365  SOLV      5999            0.0000000000
     18110      6010  TIP3      H1            -17.9754303985        7.2790442534       12.5888853365  SOLV      5999            0.0000000000
     18111      6010  TIP3      H2            -18.9365303985        6.7311142534       11.5554753365  SOLV      5999            0.0000000000
     18112      6011  TIP3      OH2           -11.2602903985       12.5309442534        3.5490553365  SOLV      6000            0.0000000000
     18113      6011  TIP3      H1            -10.7865303985       12.8265742534        4.3264753365  SOLV      6000            0.0000000000
     18114      6011  TIP3      H2            -11.8233603985       13.2691042534        3.3160153365  SOLV      6000            0.0000000000
     18115      6012  TIP3      OH2           -16.7261503985       12.5017542534       13.4251953365  SOLV      6001            0.0000000000
     18116      6012  TIP3      H1            -16.7186203985       12.3657242534       12.4777453365  SOLV      6001            0.0000000000
     18117      6012  TIP3      H2            -17.6421103985       12.3845642534       13.6771953365  SOLV      6001            0.0000000000
     18118      6013  TIP3      OH2            -4.0988003985       11.9103742534       -1.6968946635  SOLV      6002            0.0000000000
     18119      6013  TIP3      H1             -4.0254503985       12.8493942534       -1.5263646635  SOLV      6002            0.0000000000
     18120      6013  TIP3      H2             -3.1932903985       11.6052342534       -1.7531646635  SOLV      6002            0.0000000000
     18121      6014  TIP3      OH2           -21.1290803985        8.6947742534       10.7153853365  SOLV      6003            0.0000000000
     18122      6014  TIP3      H1            -21.6302403985        8.6667142534        9.9003553365  SOLV      6003            0.0000000000
     18123      6014  TIP3      H2            -21.1237103985        7.7890942534       11.0251153365  SOLV      6003            0.0000000000
     18124      6015  TIP3      OH2           -21.3788103985       11.4751542534        7.5994053365  SOLV      6004            0.0000000000
     18125      6015  TIP3      H1            -20.4327503985       11.3308542534        7.5803553365  SOLV      6004            0.0000000000
     18126      6015  TIP3      H2            -21.4911803985       12.2594342534        8.1365253365  SOLV      6004            0.0000000000
     18127      6016  TIP3      OH2            -3.1809603985       12.1411242534       13.2817753365  SOLV      6005            0.0000000000
     18128      6016  TIP3      H1             -3.2302803985       11.1859342534       13.2445353365  SOLV      6005            0.0000000000
     18129      6016  TIP3      H2             -4.0077303985       12.4086542534       13.6831553365  SOLV      6005            0.0000000000
     18130      6017  TIP3      OH2           -12.2025603985       11.7150442534       12.1579153365  SOLV      6006            0.0000000000
     18131      6017  TIP3      H1            -12.1151003985       12.5415042534       12.6328253365  SOLV      6006            0.0000000000
     18132      6017  TIP3      H2            -13.0660503985       11.3854242534       12.4068453365  SOLV      6006            0.0000000000
     18133      6018  TIP3      OH2           -11.7879803985       15.4874142534        1.9639753365  SOLV      6007            0.0000000000
     18134      6018  TIP3      H1            -11.8633803985       15.3661342534        1.0174953365  SOLV      6007            0.0000000000
     18135      6018  TIP3      H2            -11.7551103985       16.4366842534        2.0824353365  SOLV      6007            0.0000000000
     18136      6019  TIP3      OH2           -18.1346003985       14.2761142534        3.7448753365  SOLV      6008            0.0000000000
     18137      6019  TIP3      H1            -17.9825603985       13.9281542534        4.6235253365  SOLV      6008            0.0000000000
     18138      6019  TIP3      H2            -18.9855603985       13.9198442534        3.4895953365  SOLV      6008            0.0000000000
     18139      6020  TIP3      OH2            -8.6863803985       14.6414342534       -1.0337846635  SOLV      6009            0.0000000000
     18140      6020  TIP3      H1             -8.3115403985       13.8970442534       -1.5045246635  SOLV      6009            0.0000000000
     18141      6020  TIP3      H2             -8.6820103985       14.3714942534       -0.1154546635  SOLV      6009            0.0000000000
     18142      6021  TIP3      OH2            -9.0175703985       14.5671442534        1.7154353365  SOLV      6010            0.0000000000
     18143      6021  TIP3      H1             -9.9525903985       14.6673342534        1.8941353365  SOLV      6010            0.0000000000
     18144      6021  TIP3      H2             -8.7373803985       13.8577442534        2.2937553365  SOLV      6010            0.0000000000
     18145      6022  TIP3      OH2            -6.0289803985        3.6343742534       13.7619953365  SOLV      6011            0.0000000000
     18146      6022  TIP3      H1             -6.4363003985        4.1149342534       13.0413253365  SOLV      6011            0.0000000000
     18147      6022  TIP3      H2             -5.9884103985        2.7289742534       13.4540753365  SOLV      6011            0.0000000000
     18148      6023  TIP3      OH2           -18.8800303985       10.0183142534       11.7586653365  SOLV      6012            0.0000000000
     18149      6023  TIP3      H1            -18.6639003985        9.6568742534       12.6182453365  SOLV      6012            0.0000000000
     18150      6023  TIP3      H2            -19.7355603985        9.6436942534       11.5490153365  SOLV      6012            0.0000000000
     18151      6024  TIP3      OH2           -16.2612303985       -1.5116357466        7.7540853365  SOLV      6013            0.0000000000
     18152      6024  TIP3      H1            -17.1228603985       -1.5988157466        7.3463753365  SOLV      6013            0.0000000000
     18153      6024  TIP3      H2            -16.2836603985       -0.6556257466        8.1818453365  SOLV      6013            0.0000000000
     18154      6025  TIP3      OH2           -11.5984503985       -1.7895957466       11.1287853365  SOLV      6014            0.0000000000
     18155      6025  TIP3      H1            -11.1781403985       -2.2048857466       11.8818453365  SOLV      6014            0.0000000000
     18156      6025  TIP3      H2            -12.5314903985       -1.9682657466       11.2459853365  SOLV      6014            0.0000000000
     18157      6026  TIP3      OH2            -8.2719603985        1.9659242534       11.9822353365  SOLV      6015            0.0000000000
     18158      6026  TIP3      H1             -8.7860103985        1.8401442534       12.7798353365  SOLV      6015            0.0000000000
     18159      6026  TIP3      H2             -8.4274903985        2.8782342534       11.7378553365  SOLV      6015            0.0000000000
     18160      6027  TIP3      OH2            -7.5094703985        6.8269242534       -2.2564646635  SOLV      6016            0.0000000000
     18161      6027  TIP3      H1             -7.4673903985        6.6043142534       -3.1864646635  SOLV      6016            0.0000000000
     18162      6027  TIP3      H2             -6.6602603985        7.2256342534       -2.0664746635  SOLV      6016            0.0000000000
     18163      6028  TIP3      OH2           -16.1702203985        3.4538142534        8.8491053365  SOLV      6017            0.0000000000
     18164      6028  TIP3      H1            -16.8120103985        3.4135442534        9.5581153365  SOLV      6017            0.0000000000
     18165      6028  TIP3      H2            -16.1330203985        4.3802842534        8.6114053365  SOLV      6017            0.0000000000
     18166      6029  TIP3      OH2           -16.1733103985        3.6748242534        3.7611053365  SOLV      6018            0.0000000000
     18167      6029  TIP3      H1            -17.0660203985        3.3344342534        3.7024853365  SOLV      6018            0.0000000000
     18168      6029  TIP3      H2            -15.7226503985        3.2979142534        3.0054253365  SOLV      6018            0.0000000000
     18169      6030  TIP3      OH2           -10.6377603985        4.0908542534        2.5781853365  SOLV      6019            0.0000000000
     18170      6030  TIP3      H1            -11.0467303985        4.9057142534        2.2866653365  SOLV      6019            0.0000000000
     18171      6030  TIP3      H2             -9.9171403985        3.9508642534        1.9638953365  SOLV      6019            0.0000000000
     18172      6031  TIP3      OH2           -11.5356003985        4.2664942534       14.0662553365  SOLV      6020            0.0000000000
     18173      6031  TIP3      H1            -12.0982203985        3.5616542534       14.3870353365  SOLV      6020            0.0000000000
     18174      6031  TIP3      H2            -10.7092603985        4.1456842534       14.5340153365  SOLV      6020            0.0000000000
     18175      6032  TIP3      OH2            -9.6329903985        3.5368942534        5.3921553365  SOLV      6021            0.0000000000
     18176      6032  TIP3      H1             -9.8285403985        4.1425742534        4.6772153365  SOLV      6021            0.0000000000
     18177      6032  TIP3      H2             -9.4517303985        2.7034142534        4.9577853365  SOLV      6021            0.0000000000
     18178      6033  TIP3      OH2           -18.4201703985        3.7741642534       10.7163053365  SOLV      6022            0.0000000000
     18179      6033  TIP3      H1            -18.4582303985        4.1743242534       11.5850153365  SOLV      6022            0.0000000000
     18180      6033  TIP3      H2            -18.9110603985        2.9574042534       10.8065953365  SOLV      6022            0.0000000000
     18181      6034  TIP3      OH2           -15.0544303985        1.1483942534       -2.4850946635  SOLV      6023            0.0000000000
     18182      6034  TIP3      H1            -15.4853603985        0.7034042534       -1.7553546635  SOLV      6023            0.0000000000
     18183      6034  TIP3      H2            -15.7725603985        1.5200242534       -2.9973446635  SOLV      6023            0.0000000000
     18184      6035  TIP3      OH2           -21.8120903985        0.8903442534        4.5667753365  SOLV      6024            0.0000000000
     18185      6035  TIP3      H1            -21.1813203985        0.8615542534        5.2861653365  SOLV      6024            0.0000000000
     18186      6035  TIP3      H2            -21.3626603985        0.4652142534        3.8363653365  SOLV      6024            0.0000000000
     18187      6036  TIP3      OH2           -20.5378803985        1.6365442534       -0.0091846635  SOLV      6025            0.0000000000
     18188      6036  TIP3      H1            -20.0637103985        2.2275342534       -0.5940946635  SOLV      6025            0.0000000000
     18189      6036  TIP3      H2            -21.2552403985        2.1668342534        0.3378253365  SOLV      6025            0.0000000000
     18190      6037  TIP3      OH2           -10.3690703985        5.1750242534       10.0633953365  SOLV      6026            0.0000000000
     18191      6037  TIP3      H1            -10.0455903985        4.5439942534        9.4204453365  SOLV      6026            0.0000000000
     18192      6037  TIP3      H2            -10.8091403985        4.6402442534       10.7241353365  SOLV      6026            0.0000000000
     18193      6038  TIP3      OH2           -13.5917803985        1.1025742534        4.8475153365  SOLV      6027            0.0000000000
     18194      6038  TIP3      H1            -14.5026703985        1.1592542534        5.1361153365  SOLV      6027            0.0000000000
     18195      6038  TIP3      H2            -13.0864903985        1.0421242534        5.6582353365  SOLV      6027            0.0000000000
     18196      6039  TIP3      OH2           -18.7634403985        2.7312042534        3.6742753365  SOLV      6028            0.0000000000
     18197      6039  TIP3      H1            -19.6526403985        2.8307542534        3.3342353365  SOLV      6028            0.0000000000
     18198      6039  TIP3      H2            -18.4669503985        1.8895042534        3.3280653365  SOLV      6028            0.0000000000
     18199      6040  TIP3      OH2            -9.1865903985        0.3372042534        8.1116953365  SOLV      6029            0.0000000000
     18200      6040  TIP3      H1             -9.8634303985        0.4685142534        8.7756653365  SOLV      6029            0.0000000000
     18201      6040  TIP3      H2             -9.6721003985        0.1821542534        7.3014653365  SOLV      6029            0.0000000000
     18202      6041  TIP3      OH2           -16.4362403985        3.9256842534       -1.1026546635  SOLV      6030            0.0000000000
     18203      6041  TIP3      H1            -16.9787303985        3.5460642534       -1.7938946635  SOLV      6030            0.0000000000
     18204      6041  TIP3      H2            -15.6027503985        4.1201542534       -1.5312446635  SOLV      6030            0.0000000000
     18205      6042  TIP3      OH2            -5.8990803985       16.0087442534       14.3884553365  SOLV      6031            0.0000000000
     18206      6042  TIP3      H1             -5.6992103985       16.4329342534       13.5539853365  SOLV      6031            0.0000000000
     18207      6042  TIP3      H2             -5.2437103985       16.3525642534       14.9954953365  SOLV      6031            0.0000000000
     18208      6043  TIP3      OH2           -18.3011003985        8.4828742534       13.9965053365  SOLV      6032            0.0000000000
     18209      6043  TIP3      H1            -17.5688603985        8.7374642534       14.5579553365  SOLV      6032            0.0000000000
     18210      6043  TIP3      H2            -19.0812303985        8.6874142534       14.5120453365  SOLV      6032            0.0000000000
     18211      6044  TIP3      OH2           -12.2718103985        3.8898742534        6.7344753365  SOLV      6033            0.0000000000
     18212      6044  TIP3      H1            -11.7074703985        3.3435342534        6.1874353365  SOLV      6033            0.0000000000
     18213      6044  TIP3      H2            -12.4194703985        3.3680642534        7.5232353365  SOLV      6033            0.0000000000
     18214      6045  TIP3      OH2           -13.6452203985        2.2784842534        9.1485153365  SOLV      6034            0.0000000000
     18215      6045  TIP3      H1            -14.4806903985        2.7324342534        9.2587553365  SOLV      6034            0.0000000000
     18216      6045  TIP3      H2            -13.1211603985        2.5543342534        9.9005053365  SOLV      6034            0.0000000000
     18217      6046  TIP3      OH2           -13.1009603985        8.4912542534        0.8331553365  SOLV      6035            0.0000000000
     18218      6046  TIP3      H1            -13.8458603985        7.9837842534        0.5109453365  SOLV      6035            0.0000000000
     18219      6046  TIP3      H2            -13.2352403985        8.5400542534        1.7796353365  SOLV      6035            0.0000000000
     18220      6047  TIP3      OH2            -5.9510703985        7.6240742534        9.6199153365  SOLV      6036            0.0000000000
     18221      6047  TIP3      H1             -5.3091903985        8.0807042534        9.0761353365  SOLV      6036            0.0000000000
     18222      6047  TIP3      H2             -6.7813803985        7.7373142534        9.1573253365  SOLV      6036            0.0000000000
     18223      6048  TIP3      OH2           -11.5817503985        8.6755842534       12.0700653365  SOLV      6037            0.0000000000
     18224      6048  TIP3      H1            -11.9271403985        8.2938242534       12.8770253365  SOLV      6037            0.0000000000
     18225      6048  TIP3      H2            -11.7817403985        9.6089442534       12.1413553365  SOLV      6037            0.0000000000
     18226      6049  TIP3      OH2           -17.9761303985        7.7862542534        6.6029453365  SOLV      6038            0.0000000000
     18227      6049  TIP3      H1            -17.2314103985        7.7838242534        6.0015953365  SOLV      6038            0.0000000000
     18228      6049  TIP3      H2            -17.8984703985        6.9626342534        7.0844553365  SOLV      6038            0.0000000000
     18229      6050  TIP3      OH2           -10.9755503985        9.9496842534       -0.1413846635  SOLV      6039            0.0000000000
     18230      6050  TIP3      H1            -11.2707103985       10.7764742534        0.2400953365  SOLV      6039            0.0000000000
     18231      6050  TIP3      H2            -11.6785503985        9.3303742534        0.0547553365  SOLV      6039            0.0000000000
     18232      6051  TIP3      OH2           -20.9681603985        6.2469442534       11.9177953365  SOLV      6040            0.0000000000
     18233      6051  TIP3      H1            -20.7453003985        5.8289042534       12.7495453365  SOLV      6040            0.0000000000
     18234      6051  TIP3      H2            -21.5701503985        5.6344442534       11.4950753365  SOLV      6040            0.0000000000
     18235      6052  TIP3      OH2           -13.9516703985        5.7639342534       14.1307653365  SOLV      6041            0.0000000000
     18236      6052  TIP3      H1            -14.2475903985        5.5982342534       13.2356753365  SOLV      6041            0.0000000000
     18237      6052  TIP3      H2            -13.0201503985        5.5439642534       14.1201553365  SOLV      6041            0.0000000000
     18238      6053  TIP3      OH2            -9.3313903985       11.1371342534       12.0205653365  SOLV      6042            0.0000000000
     18239      6053  TIP3      H1            -10.2319603985       11.3203942534       11.7529553365  SOLV      6042            0.0000000000
     18240      6053  TIP3      H2             -9.2972803985       11.3960642534       12.9414453365  SOLV      6042            0.0000000000
     18241      6054  TIP3      OH2            -3.6000603985        3.3819242534        0.3878253365  SOLV      6043            0.0000000000
     18242      6054  TIP3      H1             -4.1544303985        2.9857242534       -0.2844246635  SOLV      6043            0.0000000000
     18243      6054  TIP3      H2             -3.4997003985        4.2924442534        0.1101553365  SOLV      6043            0.0000000000
     18244      6055  TIP3      OH2            -3.6368603985        9.1820942534       13.2249753365  SOLV      6044            0.0000000000
     18245      6055  TIP3      H1             -4.4880103985        9.4204742534       12.8576153365  SOLV      6044            0.0000000000
     18246      6055  TIP3      H2             -3.0465203985        9.1654142534       12.4716853365  SOLV      6044            0.0000000000
     18247      6056  TIP3      OH2            -5.3048903985       12.1679642534        0.8530353365  SOLV      6045            0.0000000000
     18248      6056  TIP3      H1             -5.6777803985       11.3423442534        1.1620953365  SOLV      6045            0.0000000000
     18249      6056  TIP3      H2             -5.0275403985       11.9849042534       -0.0446246635  SOLV      6045            0.0000000000
     18250      6057  TIP3      OH2            -8.1445003985        6.9759142534        7.8742253365  SOLV      6046            0.0000000000
     18251      6057  TIP3      H1             -9.0728103985        6.7441042534        7.8471553365  SOLV      6046            0.0000000000
     18252      6057  TIP3      H2             -7.6933903985        6.1988942534        7.5441053365  SOLV      6046            0.0000000000
     18253      6058  TIP3      OH2           -15.6011903985       11.3040742534        4.0070953365  SOLV      6047            0.0000000000
     18254      6058  TIP3      H1            -15.0739703985       12.0775142534        3.8069753365  SOLV      6047            0.0000000000
     18255      6058  TIP3      H2            -16.4813403985       11.5289942534        3.7054953365  SOLV      6047            0.0000000000
     18256      6059  TIP3      OH2           -19.8464203985        6.1664842534       -1.4056646635  SOLV      6048            0.0000000000
     18257      6059  TIP3      H1            -19.2304303985        6.7932042534       -1.0261846635  SOLV      6048            0.0000000000
     18258      6059  TIP3      H2            -20.7081603985        6.4824642534       -1.1340146635  SOLV      6048            0.0000000000
     18259      6060  TIP3      OH2           -14.1739603985        8.9670642534        3.5835253365  SOLV      6049            0.0000000000
     18260      6060  TIP3      H1            -14.4149603985        9.8925042534        3.6250553365  SOLV      6049            0.0000000000
     18261      6060  TIP3      H2            -14.9146003985        8.5081942534        3.9799153365  SOLV      6049            0.0000000000
     18262      6061  TIP3      OH2           -13.6593003985       13.1164242534        9.8986353365  SOLV      6050            0.0000000000
     18263      6061  TIP3      H1            -13.2968303985       13.9709842534        9.6650753365  SOLV      6050            0.0000000000
     18264      6061  TIP3      H2            -13.1277803985       12.8245842534       10.6392653365  SOLV      6050            0.0000000000
     18265      6062  TIP3      OH2           -15.4908803985       13.9888242534        3.1287453365  SOLV      6051            0.0000000000
     18266      6062  TIP3      H1            -16.4408303985       14.0945642534        3.1800753365  SOLV      6051            0.0000000000
     18267      6062  TIP3      H2            -15.1390703985       14.8095642534        3.4734953365  SOLV      6051            0.0000000000
     18268      6063  TIP3      OH2           -10.1152203985        9.2154942534        9.5991953365  SOLV      6052            0.0000000000
     18269      6063  TIP3      H1            -10.5410903985        8.9876642534       10.4255953365  SOLV      6052            0.0000000000
     18270      6063  TIP3      H2             -9.5346403985        8.4766742534        9.4167253365  SOLV      6052            0.0000000000
     18271      6064  TIP3      OH2            -7.9123303985       10.1445442534       -1.3269046635  SOLV      6053            0.0000000000
     18272      6064  TIP3      H1             -7.5590203985        9.7645242534       -0.5225546635  SOLV      6053            0.0000000000
     18273      6064  TIP3      H2             -8.8609803985       10.0510242534       -1.2399746635  SOLV      6053            0.0000000000
     18274      6065  TIP3      OH2            -7.4568003985       13.7674442534       12.0686753365  SOLV      6054            0.0000000000
     18275      6065  TIP3      H1             -8.0584803985       13.2117342534       11.5733053365  SOLV      6054            0.0000000000
     18276      6065  TIP3      H2             -7.1754303985       14.4344242534       11.4424153365  SOLV      6054            0.0000000000
     18277      6066  TIP3      OH2            -3.4088903985       14.6237942534       -1.1258846635  SOLV      6055            0.0000000000
     18278      6066  TIP3      H1             -2.6651003985       15.2098442534       -1.2657246635  SOLV      6055            0.0000000000
     18279      6066  TIP3      H2             -4.1030803985       15.1923742534       -0.7926446635  SOLV      6055            0.0000000000
     18280      6067  TIP3      OH2           -19.3342103985        1.0002142534       11.4759353365  SOLV      6056            0.0000000000
     18281      6067  TIP3      H1            -20.2269803985        1.3387542534       11.4083353365  SOLV      6056            0.0000000000
     18282      6067  TIP3      H2            -19.4329303985        0.1448242534       11.8940153365  SOLV      6056            0.0000000000
     18283      6068  TIP3      OH2            -7.0464003985        8.8167442534        0.8998853365  SOLV      6057            0.0000000000
     18284      6068  TIP3      H1             -7.3236403985        8.0886742534        1.4559953365  SOLV      6057            0.0000000000
     18285      6068  TIP3      H2             -6.1191003985        8.9359442534        1.1051453365  SOLV      6057            0.0000000000
     18286      6069  TIP3      OH2           -19.6830103985       12.8046542534        9.9108753365  SOLV      6058            0.0000000000
     18287      6069  TIP3      H1            -19.4659803985       11.8728942534        9.8798453365  SOLV      6058            0.0000000000
     18288      6069  TIP3      H2            -19.4366603985       13.0791542534       10.7941553365  SOLV      6058            0.0000000000
     18289      6070  TIP3      OH2           -13.8215503985       11.2561542534       -2.8799046635  SOLV      6059            0.0000000000
     18290      6070  TIP3      H1            -13.5825703985       10.5079642534       -3.4270146635  SOLV      6059            0.0000000000
     18291      6070  TIP3      H2            -14.0904203985       10.8683242534       -2.0471246635  SOLV      6059            0.0000000000
     18292      6071  TIP3      OH2           -14.8844903985       10.8265342534       -0.4236446635  SOLV      6060            0.0000000000
     18293      6071  TIP3      H1            -14.7376903985       10.3065142534        0.3664453365  SOLV      6060            0.0000000000
     18294      6071  TIP3      H2            -14.8873203985       11.7332942534       -0.1170546635  SOLV      6060            0.0000000000
     18295      6072  TIP3      OH2           -18.4313803985        8.0788642534        0.0868953365  SOLV      6061            0.0000000000
     18296      6072  TIP3      H1            -19.1174503985        8.4311142534        0.6538653365  SOLV      6061            0.0000000000
     18297      6072  TIP3      H2            -17.9085903985        8.8418242534       -0.1596746635  SOLV      6061            0.0000000000
     18298      6073  TIP3      OH2           -10.5998703985        0.7412442534       10.3657953365  SOLV      6062            0.0000000000
     18299      6073  TIP3      H1             -9.9010803985        0.8151142534       11.0157653365  SOLV      6062            0.0000000000
     18300      6073  TIP3      H2            -10.9807303985       -0.1232557466       10.5200853365  SOLV      6062            0.0000000000
     18301      6074  TIP3      OH2           -12.1467703985       12.5238942534        0.3257753365  SOLV      6063            0.0000000000
     18302      6074  TIP3      H1            -12.9631603985       13.0208642534        0.3782053365  SOLV      6063            0.0000000000
     18303      6074  TIP3      H2            -11.6171403985       12.9992442534       -0.3143446635  SOLV      6063            0.0000000000
     18304      6075  TIP3      OH2           -12.0797503985        3.1075642534       11.4825253365  SOLV      6064            0.0000000000
     18305      6075  TIP3      H1            -11.9607203985        3.6811042534       12.2395653365  SOLV      6064            0.0000000000
     18306      6075  TIP3      H2            -11.4242903985        2.4195042534       11.5973053365  SOLV      6064            0.0000000000
     18307      6076  TIP3      OH2           -14.8084603985       13.5676142534        0.3074653365  SOLV      6065            0.0000000000
     18308      6076  TIP3      H1            -14.6475903985       14.3673642534       -0.1932746635  SOLV      6065            0.0000000000
     18309      6076  TIP3      H2            -15.0056803985       13.8742142534        1.1925253365  SOLV      6065            0.0000000000
     18310      6077  TIP3      OH2            -5.8751703985        1.0145942534       12.3174953365  SOLV      6066            0.0000000000
     18311      6077  TIP3      H1             -6.7915903985        1.2767642534       12.2298653365  SOLV      6066            0.0000000000
     18312      6077  TIP3      H2             -5.5396703985        1.0114942534       11.4210253365  SOLV      6066            0.0000000000
     18313      6078  TIP3      OH2            -7.2730703985        4.7646942534        6.4132253365  SOLV      6067            0.0000000000
     18314      6078  TIP3      H1             -8.0706303985        4.3497142534        6.0847253365  SOLV      6067            0.0000000000
     18315      6078  TIP3      H2             -6.8279603985        4.0740642534        6.9042753365  SOLV      6067            0.0000000000
     18316      6079  TIP3      OH2           -17.8154903985       10.6927542534       -1.0163246635  SOLV      6068            0.0000000000
     18317      6079  TIP3      H1            -17.2233403985       11.3922342534       -0.7400846635  SOLV      6068            0.0000000000
     18318      6079  TIP3      H2            -17.3561903985       10.2597042534       -1.7358646635  SOLV      6068            0.0000000000
     18319      6080  TIP3      OH2           -19.4995703985        3.3570542534       -1.9003846635  SOLV      6069            0.0000000000
     18320      6080  TIP3      H1            -19.5443103985        4.2963642534       -1.7216846635  SOLV      6069            0.0000000000
     18321      6080  TIP3      H2            -20.3872503985        3.1215442534       -2.1701746635  SOLV      6069            0.0000000000
     18322      6081  TIP3      OH2            -6.1866103985       14.0209442534        8.0355753365  SOLV      6070            0.0000000000
     18323      6081  TIP3      H1             -6.3421803985       14.6993842534        7.3785053365  SOLV      6070            0.0000000000
     18324      6081  TIP3      H2             -5.2539703985       14.0928742534        8.2386353365  SOLV      6070            0.0000000000
     18325      6082  TIP3      OH2           -18.6913703985       -1.8612857466        6.7727153365  SOLV      6071            0.0000000000
     18326      6082  TIP3      H1            -18.9203903985       -1.8020357466        5.8452153365  SOLV      6071            0.0000000000
     18327      6082  TIP3      H2            -19.1340303985       -2.6527357466        7.0791253365  SOLV      6071            0.0000000000
     18328      6083  TIP3      OH2           -19.7610403985       12.0794242534        2.9332953365  SOLV      6072            0.0000000000
     18329      6083  TIP3      H1            -20.5931803985       12.5516942534        2.9604353365  SOLV      6072            0.0000000000
     18330      6083  TIP3      H2            -19.2152103985       12.5891842534        2.3346053365  SOLV      6072            0.0000000000
     18331      6084  TIP3      OH2           -20.4726703985       14.6917942534       14.2630953365  SOLV      6073            0.0000000000
     18332      6084  TIP3      H1            -19.9324503985       14.4751942534       15.0230153365  SOLV      6073            0.0000000000
     18333      6084  TIP3      H2            -20.9538703985       13.8863942534       14.0733453365  SOLV      6073            0.0000000000
     18334      6085  TIP3      OH2           -15.8753303985       13.6112342534       15.8835153365  SOLV      6074            0.0000000000
     18335      6085  TIP3      H1            -15.1076103985       13.1523142534       16.2244353365  SOLV      6074            0.0000000000
     18336      6085  TIP3      H2            -15.8967103985       13.3852142534       14.9536353365  SOLV      6074            0.0000000000
     18337      6086  TIP3      OH2           -11.7833703985       13.1192942534       -2.7413046635  SOLV      6075            0.0000000000
     18338      6086  TIP3      H1            -12.4272703985       12.4881542534       -2.4199346635  SOLV      6075            0.0000000000
     18339      6086  TIP3      H2            -11.0215403985       12.5880942534       -2.9729546635  SOLV      6075            0.0000000000
     18340      6087  TIP3      OH2            -9.2984603985       11.9913442534       14.6126653365  SOLV      6076            0.0000000000
     18341      6087  TIP3      H1             -9.6495103985       11.1346442534       14.8557053365  SOLV      6076            0.0000000000
     18342      6087  TIP3      H2             -8.5721403985       12.1340142534       15.2195653365  SOLV      6076            0.0000000000
     18343      6088  TIP3      OH2            -7.1790803985       12.9362842534       -2.5075046635  SOLV      6077            0.0000000000
     18344      6088  TIP3      H1             -6.8960403985       12.1418042534       -2.0548146635  SOLV      6077            0.0000000000
     18345      6088  TIP3      H2             -6.4392903985       13.1693842534       -3.0683946635  SOLV      6077            0.0000000000
     18346      6089  TIP3      OH2           -20.5657203985        8.5022042534       15.2175253365  SOLV      6078            0.0000000000
     18347      6089  TIP3      H1            -20.4216703985        7.6002742534       14.9311953365  SOLV      6078            0.0000000000
     18348      6089  TIP3      H2            -21.3379803985        8.7884142534       14.7297553365  SOLV      6078            0.0000000000
     18349      6090  TIP3      OH2           -16.2243503985        8.8457742534       -2.6500146635  SOLV      6079            0.0000000000
     18350      6090  TIP3      H1            -16.1599403985        8.0517342534       -2.1193746635  SOLV      6079            0.0000000000
     18351      6090  TIP3      H2            -15.5714303985        8.7270542534       -3.3398146635  SOLV      6079            0.0000000000
     18352      6091  TIP3      OH2           -13.9101103985        8.4720142534       14.6501653365  SOLV      6080            0.0000000000
     18353      6091  TIP3      H1            -14.2387303985        8.7428242534       13.7929053365  SOLV      6080            0.0000000000
     18354      6091  TIP3      H2            -13.7582903985        7.5309942534       14.5626653365  SOLV      6080            0.0000000000
     18355      6092  TIP3      OH2           -10.8720103985        9.8929442534       -2.9142146635  SOLV      6081            0.0000000000
     18356      6092  TIP3      H1            -11.1406003985       10.0731542534       -2.0133246635  SOLV      6081            0.0000000000
     18357      6092  TIP3      H2            -11.0784503985        8.9675642534       -3.0456346635  SOLV      6081            0.0000000000
     18358      6093  TIP3      OH2            -8.1755903985        8.3877442534       12.0333953365  SOLV      6082            0.0000000000
     18359      6093  TIP3      H1             -7.4301103985        8.9761142534       11.9137953365  SOLV      6082            0.0000000000
     18360      6093  TIP3      H2             -8.9329103985        8.9697142534       12.0967053365  SOLV      6082            0.0000000000
     18361      6094  TIP3      OH2           -19.7330703985        5.7025342534       14.6374553365  SOLV      6083            0.0000000000
     18362      6094  TIP3      H1            -19.3249503985        4.8451942534       14.5165153365  SOLV      6083            0.0000000000
     18363      6094  TIP3      H2            -19.9933103985        5.7166642534       15.5584853365  SOLV      6083            0.0000000000
     18364      6095  TIP3      OH2           -15.0749703985        6.8183942534       -0.3442146635  SOLV      6084            0.0000000000
     18365      6095  TIP3      H1            -15.5347703985        6.3342242534        0.3416353365  SOLV      6084            0.0000000000
     18366      6095  TIP3      H2            -14.8201003985        6.1499342534       -0.9801646635  SOLV      6084            0.0000000000
     18367      6096  TIP3      OH2           -15.7860403985        4.7111042534       12.0117453365  SOLV      6085            0.0000000000
     18368      6096  TIP3      H1            -16.4044303985        5.3857642534       12.2922153365  SOLV      6085            0.0000000000
     18369      6096  TIP3      H2            -15.4419203985        5.0324942534       11.1783653365  SOLV      6085            0.0000000000
     18370      6097  TIP3      OH2           -14.0039303985        5.0615742534       -2.0818946635  SOLV      6086            0.0000000000
     18371      6097  TIP3      H1            -14.1844303985        4.9066942534       -3.0090646635  SOLV      6086            0.0000000000
     18372      6097  TIP3      H2            -13.0538803985        5.1694442534       -2.0371046635  SOLV      6086            0.0000000000
     18373      6098  TIP3      OH2           -10.7662203985        7.1826342534       15.2892253365  SOLV      6087            0.0000000000
     18374      6098  TIP3      H1             -9.8131003985        7.2665442534       15.2618253365  SOLV      6087            0.0000000000
     18375      6098  TIP3      H2            -10.9267603985        6.4708142534       15.9087153365  SOLV      6087            0.0000000000
     18376      6099  TIP3      OH2            -4.6141003985        7.4159942534       -2.6360846635  SOLV      6088            0.0000000000
     18377      6099  TIP3      H1             -4.8876203985        6.9915442534       -3.4492546635  SOLV      6088            0.0000000000
     18378      6099  TIP3      H2             -4.5746903985        8.3474442534       -2.8530446635  SOLV      6088            0.0000000000
     18379      6100  TIP3      OH2           -15.4466703985        2.0661842534       13.0940553365  SOLV      6089            0.0000000000
     18380      6100  TIP3      H1            -15.2965803985        1.3373142534       12.4920253365  SOLV      6089            0.0000000000
     18381      6100  TIP3      H2            -15.4444303985        2.8433542534       12.5352753365  SOLV      6089            0.0000000000
     18382      6101  TIP3      OH2           -15.0341003985        0.4357642534       10.5867953365  SOLV      6090            0.0000000000
     18383      6101  TIP3      H1            -14.4983503985        0.8874342534        9.9347253365  SOLV      6090            0.0000000000
     18384      6101  TIP3      H2            -15.8861403985        0.3277442534       10.1642053365  SOLV      6090            0.0000000000
     18385      6102  TIP3      OH2           -13.4522603985        5.8753842534       10.8263153365  SOLV      6091            0.0000000000
     18386      6102  TIP3      H1            -12.7017803985        5.7191342534       10.2530953365  SOLV      6091            0.0000000000
     18387      6102  TIP3      H2            -13.7914303985        6.7270442534       10.5508653365  SOLV      6091            0.0000000000
     18388      6103  TIP3      OH2            -9.0366403985        3.6905642534       15.8548453365  SOLV      6092            0.0000000000
     18389      6103  TIP3      H1             -8.8445103985        2.7595042534       15.7432953365  SOLV      6092            0.0000000000
     18390      6103  TIP3      H2             -8.1790103985        4.1155142534       15.8443853365  SOLV      6092            0.0000000000
     18391      6104  TIP3      OH2            -7.7199203985        6.4790842534       13.9321153365  SOLV      6093            0.0000000000
     18392      6104  TIP3      H1             -8.0014203985        7.1885442534       13.3544953365  SOLV      6093            0.0000000000
     18393      6104  TIP3      H2             -6.7774903985        6.4063842534       13.7812353365  SOLV      6093            0.0000000000
     18394      6105  TIP3      OH2           -16.9680403985        3.2645342534       15.0056153365  SOLV      6094            0.0000000000
     18395      6105  TIP3      H1            -17.7351403985        2.7320142534       14.7953753365  SOLV      6094            0.0000000000
     18396      6105  TIP3      H2            -16.2891403985        2.9545742534       14.4062453365  SOLV      6094            0.0000000000
     18397      6106  TIP3      OH2           -14.2285503985       -2.1076657466       11.0181553365  SOLV      6095            0.0000000000
     18398      6106  TIP3      H1            -14.3265903985       -1.1613457466       10.9127753365  SOLV      6095            0.0000000000
     18399      6106  TIP3      H2            -14.9709303985       -2.4802857466       10.5425053365  SOLV      6095            0.0000000000
     18400      6107  TIP3      OH2           -12.9645003985        2.2138742534       14.5819953365  SOLV      6096            0.0000000000
     18401      6107  TIP3      H1            -13.1999603985        1.9945442534       15.4834853365  SOLV      6096            0.0000000000
     18402      6107  TIP3      H2            -13.7478103985        2.0069942534       14.0722453365  SOLV      6096            0.0000000000
     18403      6108  TIP3      OH2           -10.2488403985        1.3412242534       13.6573453365  SOLV      6097            0.0000000000
     18404      6108  TIP3      H1            -11.1963003985        1.3731942534       13.7896753365  SOLV      6097            0.0000000000
     18405      6108  TIP3      H2             -9.9361703985        0.7159342534       14.3111653365  SOLV      6097            0.0000000000
     18406      6109  TIP3      OH2            -8.6146903985       -0.0246657466       15.6625353365  SOLV      6098            0.0000000000
     18407      6109  TIP3      H1             -8.7115103985       -0.9769357466       15.6567253365  SOLV      6098            0.0000000000
     18408      6109  TIP3      H2             -8.9363803985        0.2440142534       16.5230853365  SOLV      6098            0.0000000000
     18409      6110  TIP3      OH2           -18.7877603985        1.1849142534       14.7100853365  SOLV      6099            0.0000000000
     18410      6110  TIP3      H1            -18.5760203985        0.4785242534       14.0998353365  SOLV      6099            0.0000000000
     18411      6110  TIP3      H2            -18.8990103985        0.7475142534       15.5542053365  SOLV      6099            0.0000000000
     18412      6111  TIP3      OH2           -14.0067403985       -2.8139257466       13.6894353365  SOLV      6100            0.0000000000
     18413      6111  TIP3      H1            -13.2949003985       -3.4537057466       13.6753453365  SOLV      6100            0.0000000000
     18414      6111  TIP3      H2            -14.1077003985       -2.5470957466       12.7757453365  SOLV      6100            0.0000000000
     18415      6112  TIP3      OH2           -13.6529903985       -1.1310857466       15.7430653365  SOLV      6101            0.0000000000
     18416      6112  TIP3      H1            -13.7847703985       -1.6067057466       14.9229153365  SOLV      6101            0.0000000000
     18417      6112  TIP3      H2            -14.2522503985       -0.3867257466       15.6877753365  SOLV      6101            0.0000000000
     18418      6113  TIP3      OH2           -14.1067603985       15.7519442534       -1.0805346635  SOLV      6102            0.0000000000
     18419      6113  TIP3      H1            -13.1736903985       15.9098142534       -0.9366946635  SOLV      6102            0.0000000000
     18420      6113  TIP3      H2            -14.3708803985       16.4272442534       -1.7053846635  SOLV      6102            0.0000000000
     18421      6114  TIP3      OH2           -20.5382703985       10.3883242534       -1.5977246635  SOLV      6103            0.0000000000
     18422      6114  TIP3      H1            -19.6243503985       10.4672142534       -1.3243346635  SOLV      6103            0.0000000000
     18423      6114  TIP3      H2            -20.5309603985        9.7012842534       -2.2641646635  SOLV      6103            0.0000000000
     18424      6115  TIP3      OH2           -21.8892103985       15.7811742534        3.4796653365  SOLV      6104            0.0000000000
     18425      6115  TIP3      H1            -22.5365003985       15.3193442534        2.9467853365  SOLV      6104            0.0000000000
     18426      6115  TIP3      H2            -21.5347503985       15.1095042534        4.0622853365  SOLV      6104            0.0000000000
     18427      6116  TIP3      OH2           -21.0192903985       13.8618742534        5.2842853365  SOLV      6105            0.0000000000
     18428      6116  TIP3      H1            -21.3536103985       12.9816042534        5.4563053365  SOLV      6105            0.0000000000
     18429      6116  TIP3      H2            -20.7970503985       14.2073742534        6.1488453365  SOLV      6105            0.0000000000
     18430      6117  TIP3      OH2            -3.4708103985       14.6715142534        8.2647653365  SOLV      6106            0.0000000000
     18431      6117  TIP3      H1             -3.4921403985       14.8563542534        9.2037053365  SOLV      6106            0.0000000000
     18432      6117  TIP3      H2             -2.7801903985       15.2399142534        7.9239053365  SOLV      6106            0.0000000000
     18433      6118  TIP3      OH2            -3.9075203985       14.2386242534       11.1866753365  SOLV      6107            0.0000000000
     18434      6118  TIP3      H1             -4.3946503985       13.5030342534       10.8154153365  SOLV      6107            0.0000000000
     18435      6118  TIP3      H2             -3.3582503985       13.8450142534       11.8646153365  SOLV      6107            0.0000000000
     18436      6119  TIP3      OH2            -5.4567903985       10.0284342534       15.8247053365  SOLV      6108            0.0000000000
     18437      6119  TIP3      H1             -6.3226803985        9.9234042534       16.2189353365  SOLV      6108            0.0000000000
     18438      6119  TIP3      H2             -5.0802003985       10.7867642534       16.2711753365  SOLV      6108            0.0000000000
     18439      6120  TIP3      OH2            -4.1558203985        8.2848042534        1.3389553365  SOLV      6109            0.0000000000
     18440      6120  TIP3      H1             -3.3056803985        8.7058942534        1.4661153365  SOLV      6109            0.0000000000
     18441      6120  TIP3      H2             -4.1503103985        7.5448142534        1.9460953365  SOLV      6109            0.0000000000
     18442      6121  TIP3      OH2            -3.7612603985        6.3385442534        3.1625253365  SOLV      6110            0.0000000000
     18443      6121  TIP3      H1             -4.4878003985        5.8588042534        3.5602853365  SOLV      6110            0.0000000000
     18444      6121  TIP3      H2             -3.1799303985        6.5440142534        3.8946853365  SOLV      6110            0.0000000000
     18445      6122  TIP3      OH2            -4.0021403985        9.1232942534        8.1102853365  SOLV      6111            0.0000000000
     18446      6122  TIP3      H1             -3.1687203985        8.7452942534        7.8296453365  SOLV      6111            0.0000000000
     18447      6122  TIP3      H2             -3.8901103985       10.0664142534        7.9911953365  SOLV      6111            0.0000000000
     18448      6123  TIP3      OH2            -5.5159103985       12.0010442534       10.4171253365  SOLV      6112            0.0000000000
     18449      6123  TIP3      H1             -6.1633803985       12.3261942534       11.0426453365  SOLV      6112            0.0000000000
     18450      6123  TIP3      H2             -6.0335103985       11.5608142534        9.7429553365  SOLV      6112            0.0000000000
     18451      6124  TIP3      OH2            -3.4929503985        6.2393942534       -0.4463446635  SOLV      6113            0.0000000000
     18452      6124  TIP3      H1             -4.0148403985        6.5958042534       -1.1652546635  SOLV      6113            0.0000000000
     18453      6124  TIP3      H2             -3.5260303985        6.9141742534        0.2317453365  SOLV      6113            0.0000000000
     18454      6125  TIP3      OH2            -5.9745803985        4.8591942534        3.7253953365  SOLV      6114            0.0000000000
     18455      6125  TIP3      H1             -6.1247003985        3.9140542534        3.7051753365  SOLV      6114            0.0000000000
     18456      6125  TIP3      H2             -6.3281303985        5.1403342534        4.5693053365  SOLV      6114            0.0000000000
     18457      6126  TIP3      OH2           -20.9393403985        6.9374142534        7.7357753365  SOLV      6115            0.0000000000
     18458      6126  TIP3      H1            -20.7550503985        6.8555842534        6.8000653365  SOLV      6115            0.0000000000
     18459      6126  TIP3      H2            -20.0900503985        6.8131142534        8.1594153365  SOLV      6115            0.0000000000
     18460      6127  TIP3      OH2            -5.1182903985        6.8295242534       13.3642253365  SOLV      6116            0.0000000000
     18461      6127  TIP3      H1             -4.5355603985        6.0947542534       13.5559453365  SOLV      6116            0.0000000000
     18462      6127  TIP3      H2             -4.5543603985        7.6015542534       13.4108053365  SOLV      6116            0.0000000000
     18463      6128  TIP3      OH2            -3.6215803985        4.7321042534       14.0487653365  SOLV      6117            0.0000000000
     18464      6128  TIP3      H1             -4.4849103985        4.3533142534       13.8832353365  SOLV      6117            0.0000000000
     18465      6128  TIP3      H2             -3.0172103985        3.9935842534       13.9743453365  SOLV      6117            0.0000000000
     18466      6129  TIP3      OH2            -5.6522703985        3.0235142534        7.6237953365  SOLV      6118            0.0000000000
     18467      6129  TIP3      H1             -4.7194703985        3.2355042534        7.5893953365  SOLV      6118            0.0000000000
     18468      6129  TIP3      H2             -5.8875203985        3.1247242534        8.5460953365  SOLV      6118            0.0000000000
     18469      6130  TIP3      OH2            -5.6230803985        3.7600442534       10.3997353365  SOLV      6119            0.0000000000
     18470      6130  TIP3      H1             -6.4659503985        4.0280842534       10.7657153365  SOLV      6119            0.0000000000
     18471      6130  TIP3      H2             -5.1806503985        4.5822342534       10.1888453365  SOLV      6119            0.0000000000
     18472      6131  TIP3      OH2           -21.3418603985        2.2079142534       13.8766553365  SOLV      6120            0.0000000000
     18473      6131  TIP3      H1            -20.4223703985        2.0857442534       14.1129653365  SOLV      6120            0.0000000000
     18474      6131  TIP3      H2            -21.7914103985        1.4578842534       14.2660053365  SOLV      6120            0.0000000000
     18475      6132  TIP3      OH2            -3.3399203985       -2.2599357466       15.7532353365  SOLV      6121            0.0000000000
     18476      6132  TIP3      H1             -2.9902203985       -2.9135857466       15.1477053365  SOLV      6121            0.0000000000
     18477      6132  TIP3      H2             -3.1929703985       -1.4225257466       15.3134953365  SOLV      6121            0.0000000000
     18478      6133  TIP3      OH2           -20.1206103985        0.5200742534        6.7679453365  SOLV      6122            0.0000000000
     18479      6133  TIP3      H1            -19.6754503985       -0.2716757466        7.0699153365  SOLV      6122            0.0000000000
     18480      6133  TIP3      H2            -19.6543103985        1.2365942534        7.1985053365  SOLV      6122            0.0000000000
     18481      6134  TIP3      OH2           -21.8165803985        3.5193742534        7.8369653365  SOLV      6123            0.0000000000
     18482      6134  TIP3      H1            -21.3246003985        3.2984242534        7.0461653365  SOLV      6123            0.0000000000
     18483      6134  TIP3      H2            -21.4544903985        4.3597142534        8.1179153365  SOLV      6123            0.0000000000
     18484      6135  TIP3      OH2            -3.8202003985       -0.1504757466       14.1023653365  SOLV      6124            0.0000000000
     18485      6135  TIP3      H1             -4.7376303985        0.1202342534       14.0667153365  SOLV      6124            0.0000000000
     18486      6135  TIP3      H2             -3.6972603985       -0.6856357466       13.3183353365  SOLV      6124            0.0000000000
     18487      6136  TIP3      OH2           -21.5029303985       -0.2227157466        1.8912053365  SOLV      6125            0.0000000000
     18488      6136  TIP3      H1            -22.4280903985       -0.0140557466        1.7617553365  SOLV      6125            0.0000000000
     18489      6136  TIP3      H2            -21.0489403985        0.2613642534        1.2014353365  SOLV      6125            0.0000000000
     18490      6137  TIP3      OH2            -6.7322103985       14.7614542534        3.8369453365  SOLV      6126            0.0000000000
     18491      6137  TIP3      H1             -6.0799203985       14.4136642534        3.2288553365  SOLV      6126            0.0000000000
     18492      6137  TIP3      H2             -6.2218303985       15.2497742534        4.4829153365  SOLV      6126            0.0000000000
     18493      6138  TIP3      OH2           -21.5393903985       -1.4848157466       10.2354553365  SOLV      6127            0.0000000000
     18494      6138  TIP3      H1            -22.2043403985       -1.7307857466       10.8785453365  SOLV      6127            0.0000000000
     18495      6138  TIP3      H2            -21.9822603985       -0.8627757466        9.6582553365  SOLV      6127            0.0000000000
     18496      6139  TIP3      OH2           -19.3474603985       11.6905942534       14.3800353365  SOLV      6128            0.0000000000
     18497      6139  TIP3      H1            -20.1682103985       11.8652442534       13.9195053365  SOLV      6128            0.0000000000
     18498      6139  TIP3      H2            -19.5996803985       11.6170642534       15.3004753365  SOLV      6128            0.0000000000
     18499      6140  TIP3      OH2           -16.3931703985       12.6647142534       10.6384353365  SOLV      6129            0.0000000000
     18500      6140  TIP3      H1            -16.8180603985       13.4745642534       10.3558953365  SOLV      6129            0.0000000000
     18501      6140  TIP3      H2            -15.4888903985       12.7501242534       10.3364153365  SOLV      6129            0.0000000000
     18502      6141  TIP3      OH2           -12.0820303985       14.0637142534       13.5978053365  SOLV      6130            0.0000000000
     18503      6141  TIP3      H1            -11.8972803985       13.7303242534       14.4758353365  SOLV      6130            0.0000000000
     18504      6141  TIP3      H2            -11.2355803985       14.3735742534       13.2757253365  SOLV      6130            0.0000000000
     18505      6142  TIP3      OH2            -9.7369903985       15.3496042534       12.8419453365  SOLV      6131            0.0000000000
     18506      6142  TIP3      H1             -9.0601003985       14.7168342534       12.6018653365  SOLV      6131            0.0000000000
     18507      6142  TIP3      H2             -9.4151103985       15.7506542534       13.6492753365  SOLV      6131            0.0000000000
     18508      6143  TIP3      OH2            -4.8196103985       -2.0608457466       11.9214453365  SOLV      6132            0.0000000000
     18509      6143  TIP3      H1             -5.6322603985       -1.7358157466       11.5339153365  SOLV      6132            0.0000000000
     18510      6143  TIP3      H2             -4.5867603985       -2.8209957466       11.3883553365  SOLV      6132            0.0000000000
     18511      6144  TIP3      OH2           -18.9915003985       15.9211042534       10.6859653365  SOLV      6133            0.0000000000
     18512      6144  TIP3      H1            -19.7118603985       16.3612042534       10.2347353365  SOLV      6133            0.0000000000
     18513      6144  TIP3      H2            -19.3571003985       15.6705742534       11.5343653365  SOLV      6133            0.0000000000
     18514      6145  TIP3      OH2           -16.5242403985       15.5214942534        9.7156853365  SOLV      6134            0.0000000000
     18515      6145  TIP3      H1            -17.3890203985       15.5933442534       10.1196953365  SOLV      6134            0.0000000000
     18516      6145  TIP3      H2            -16.5793403985       16.0682242534        8.9319353365  SOLV      6134            0.0000000000
     18517      6146  TIP3      OH2           -11.8136803985       15.4093842534        8.8912853365  SOLV      6135            0.0000000000
     18518      6146  TIP3      H1            -12.2702803985       15.9383542534        8.2371253365  SOLV      6135            0.0000000000
     18519      6146  TIP3      H2            -11.6508803985       16.0125242534        9.6165153365  SOLV      6135            0.0000000000
     18520      6147  TIP3      OH2            -9.4860503985       14.2873442534        9.8363153365  SOLV      6136            0.0000000000
     18521      6147  TIP3      H1            -10.3906803985       14.4523642534        9.5705253365  SOLV      6136            0.0000000000
     18522      6147  TIP3      H2             -9.0571903985       15.1405642534        9.7706553365  SOLV      6136            0.0000000000
     18523      6148  TIP3      OH2            -6.8818603985       15.8572542534       10.1310953365  SOLV      6137            0.0000000000
     18524      6148  TIP3      H1             -7.0636603985       16.7731442534        9.9205853365  SOLV      6137            0.0000000000
     18525      6148  TIP3      H2             -6.7050803985       15.4469642534        9.2845553365  SOLV      6137            0.0000000000
     18526      6149  TIP3      OH2           -19.5766903985       14.5443542534        7.5961453365  SOLV      6138            0.0000000000
     18527      6149  TIP3      H1            -19.5950903985       14.1188642534        8.4533753365  SOLV      6138            0.0000000000
     18528      6149  TIP3      H2            -18.7719003985       14.2258542534        7.1873653365  SOLV      6138            0.0000000000
     18529      6150  TIP3      OH2           -17.4353803985       13.2542242534        6.2511353365  SOLV      6139            0.0000000000
     18530      6150  TIP3      H1            -17.6543103985       12.3379642534        6.4207353365  SOLV      6139            0.0000000000
     18531      6150  TIP3      H2            -16.6111603985       13.3942642534        6.7172753365  SOLV      6139            0.0000000000
     18532      6151  TIP3      OH2           -14.8981303985       13.7241542534        7.0999353365  SOLV      6140            0.0000000000
     18533      6151  TIP3      H1            -14.6855603985       12.8360542534        6.8130253365  SOLV      6140            0.0000000000
     18534      6151  TIP3      H2            -14.8336203985       13.6899242534        8.0543353365  SOLV      6140            0.0000000000
     18535      6152  TIP3      OH2           -11.3897603985       -0.6117857466        6.2442653365  SOLV      6141            0.0000000000
     18536      6152  TIP3      H1            -12.0640803985       -1.2412257466        6.4998453365  SOLV      6141            0.0000000000
     18537      6152  TIP3      H2            -10.8258403985       -1.0958957466        5.6410553365  SOLV      6141            0.0000000000
     18538      6153  TIP3      OH2            -6.2470403985       -2.5043857466        6.3569753365  SOLV      6142            0.0000000000
     18539      6153  TIP3      H1             -5.6432803985       -1.9568457466        5.8550753365  SOLV      6142            0.0000000000
     18540      6153  TIP3      H2             -7.1168403985       -2.1853457466        6.1163853365  SOLV      6142            0.0000000000
     18541      6154  TIP3      OH2            -4.5200003985       -1.3655157466        4.6900653365  SOLV      6143            0.0000000000
     18542      6154  TIP3      H1             -3.9082503985       -1.8799457466        4.1634253365  SOLV      6143            0.0000000000
     18543      6154  TIP3      H2             -4.1376603985       -0.4883057466        4.7135053365  SOLV      6143            0.0000000000
     18544      6155  TIP3      OH2           -19.0630103985       -1.9777557466        4.0662553365  SOLV      6144            0.0000000000
     18545      6155  TIP3      H1            -19.8400303985       -2.2122657466        3.5588453365  SOLV      6144            0.0000000000
     18546      6155  TIP3      H2            -18.5326503985       -2.7745457466        4.0750553365  SOLV      6144            0.0000000000
     18547      6156  TIP3      OH2           -20.2266703985       -2.1799457466       -0.1301346635  SOLV      6145            0.0000000000
     18548      6156  TIP3      H1            -19.7876003985       -1.5688957466       -0.7217846635  SOLV      6145            0.0000000000
     18549      6156  TIP3      H2            -20.8604303985       -1.6415357466        0.3438653365  SOLV      6145            0.0000000000
     18550      6157  TIP3      OH2            -8.9269103985       -2.0210657466        5.5287353365  SOLV      6146            0.0000000000
     18551      6157  TIP3      H1             -8.8507503985       -1.9259057466        4.5793353365  SOLV      6146            0.0000000000
     18552      6157  TIP3      H2             -9.2019903985       -2.9287757466        5.6576453365  SOLV      6146            0.0000000000
     18553      6158  TIP3      OH2           -20.3257203985       13.7682742534        0.7673753365  SOLV      6147            0.0000000000
     18554      6158  TIP3      H1            -21.0107303985       13.7301642534        0.0998853365  SOLV      6147            0.0000000000
     18555      6158  TIP3      H2            -20.3220003985       14.6810342534        1.0555853365  SOLV      6147            0.0000000000
     18556      6159  TIP3      OH2           -18.3657603985       -0.2637957466       -1.6877246635  SOLV      6148            0.0000000000
     18557      6159  TIP3      H1            -17.8744203985       -0.8935557466       -2.2151746635  SOLV      6148            0.0000000000
     18558      6159  TIP3      H2            -17.7421303985        0.0321442534       -1.0246046635  SOLV      6148            0.0000000000
     18559      6160  TIP3      OH2           -11.4613703985       14.9777642534       -0.8350046635  SOLV      6149            0.0000000000
     18560      6160  TIP3      H1            -10.5953503985       15.3445042534       -1.0131846635  SOLV      6149            0.0000000000
     18561      6160  TIP3      H2            -11.7080903985       14.5385642534       -1.6489246635  SOLV      6149            0.0000000000
     18562      6161  TIP3      OH2            -4.7524103985       14.5407942534        1.8441053365  SOLV      6150            0.0000000000
     18563      6161  TIP3      H1             -4.9467003985       13.7930042534        1.2790653365  SOLV      6150            0.0000000000
     18564      6161  TIP3      H2             -4.7914003985       15.2988042534        1.2608953365  SOLV      6150            0.0000000000
     18565      6162  TIP3      OH2           -19.1052103985       -1.4635657466       13.5838753365  SOLV      6151            0.0000000000
     18566      6162  TIP3      H1            -19.4713903985       -2.2293057466       14.0263453365  SOLV      6151            0.0000000000
     18567      6162  TIP3      H2            -18.1923603985       -1.4345457466       13.8703853365  SOLV      6151            0.0000000000
     18568      6163  TIP3      OH2           -17.1321303985       -2.1131257466       15.1195853365  SOLV      6152            0.0000000000
     18569      6163  TIP3      H1            -16.2337703985       -2.3871057466       14.9349253365  SOLV      6152            0.0000000000
     18570      6163  TIP3      H2            -17.5188203985       -2.8555257466       15.5838453365  SOLV      6152            0.0000000000
     18571      6164  TIP3      OH2           -18.5076003985       14.6883542534       -2.2074146635  SOLV      6153            0.0000000000
     18572      6164  TIP3      H1            -18.7751403985       14.9746442534       -1.3341046635  SOLV      6153            0.0000000000
     18573      6164  TIP3      H2            -17.7363403985       14.1422742534       -2.0551646635  SOLV      6153            0.0000000000
     18574      6165  TIP3      OH2            -8.7109003985       -2.7805957466       15.3018653365  SOLV      6154            0.0000000000
     18575      6165  TIP3      H1             -8.6341803985       -3.2065257466       16.1556353365  SOLV      6154            0.0000000000
     18576      6165  TIP3      H2             -7.8172403985       -2.7671257466       14.9592153365  SOLV      6154            0.0000000000
     18577      6166  TIP3      OH2            -5.5347903985       13.2920342534       13.9942853365  SOLV      6155            0.0000000000
     18578      6166  TIP3      H1             -6.3166003985       13.1058342534       13.4743453365  SOLV      6155            0.0000000000
     18579      6166  TIP3      H2             -5.6068003985       14.2214642534       14.2115353365  SOLV      6155            0.0000000000
     18580      6167  TIP3      OH2             8.8712496015        7.1784742534        4.0250053365  SOLV      6156            0.0000000000
     18581      6167  TIP3      H1              8.9603596015        8.1222942534        3.8927153365  SOLV      6156            0.0000000000
     18582      6167  TIP3      H2              8.2330096015        6.9031142534        3.3669453365  SOLV      6156            0.0000000000
     18583      6168  TIP3      OH2             7.8043796015        6.4335442534        7.4438253365  SOLV      6157            0.0000000000
     18584      6168  TIP3      H1              7.7661296015        5.7871742534        8.1487853365  SOLV      6157            0.0000000000
     18585      6168  TIP3      H2              7.4820296015        5.9669842534        6.6726953365  SOLV      6157            0.0000000000
     18586      6169  TIP3      OH2             0.1728796015        6.0477542534        9.0368153365  SOLV      6158            0.0000000000
     18587      6169  TIP3      H1              0.2140896015        5.4220842534        9.7600553365  SOLV      6158            0.0000000000
     18588      6169  TIP3      H2              0.8756496015        6.6716142534        9.2188553365  SOLV      6158            0.0000000000
     18589      6170  TIP3      OH2            11.5103996015        9.3725842534        5.7453353365  SOLV      6159            0.0000000000
     18590      6170  TIP3      H1             11.0696696015        8.6521842534        6.1958953365  SOLV      6159            0.0000000000
     18591      6170  TIP3      H2             11.4973696015       10.0933042534        6.3751053365  SOLV      6159            0.0000000000
     18592      6171  TIP3      OH2             1.0961896015       10.4976442534        7.5717253365  SOLV      6160            0.0000000000
     18593      6171  TIP3      H1              0.7267096015        9.6956942534        7.2021553365  SOLV      6160            0.0000000000
     18594      6171  TIP3      H2              2.0372996015       10.3291342534        7.6180653365  SOLV      6160            0.0000000000
     18595      6172  TIP3      OH2            -2.2937603985        4.1579042534        2.9646053365  SOLV      6161            0.0000000000
     18596      6172  TIP3      H1             -2.7414203985        5.0037742534        2.9462553365  SOLV      6161            0.0000000000
     18597      6172  TIP3      H2             -2.8546403985        3.5783242534        2.4491153365  SOLV      6161            0.0000000000
     18598      6173  TIP3      OH2            -1.5831503985        6.3198642534        5.0904053365  SOLV      6162            0.0000000000
     18599      6173  TIP3      H1             -1.3698003985        5.5500242534        5.6177053365  SOLV      6162            0.0000000000
     18600      6173  TIP3      H2             -0.8453903985        6.4095342534        4.4871653365  SOLV      6162            0.0000000000
     18601      6174  TIP3      OH2             8.6219496015       14.4767542534        5.9573753365  SOLV      6163            0.0000000000
     18602      6174  TIP3      H1              9.2415896015       13.8002242534        5.6842953365  SOLV      6163            0.0000000000
     18603      6174  TIP3      H2              8.4136896015       14.2588342534        6.8658653365  SOLV      6163            0.0000000000
     18604      6175  TIP3      OH2             6.1938196015        8.8656842534        7.8499253365  SOLV      6164            0.0000000000
     18605      6175  TIP3      H1              6.4976096015        8.1798242534        7.2553353365  SOLV      6164            0.0000000000
     18606      6175  TIP3      H2              6.9152196015        8.9845542534        8.4677253365  SOLV      6164            0.0000000000
     18607      6176  TIP3      OH2            14.8567996015        0.4672142534        8.7105453365  SOLV      6165            0.0000000000
     18608      6176  TIP3      H1             14.9060196015        1.0773342534        9.4464553365  SOLV      6165            0.0000000000
     18609      6176  TIP3      H2             15.2823096015        0.9283042534        7.9876553365  SOLV      6165            0.0000000000
     18610      6177  TIP3      OH2             9.3345196015        3.2599242534        8.1774053365  SOLV      6166            0.0000000000
     18611      6177  TIP3      H1              9.4771096015        2.3136242534        8.1975653365  SOLV      6166            0.0000000000
     18612      6177  TIP3      H2              9.2284196015        3.4669042534        7.2488953365  SOLV      6166            0.0000000000
     18613      6178  TIP3      OH2             2.4893496015        1.3615642534        5.4498853365  SOLV      6167            0.0000000000
     18614      6178  TIP3      H1              2.5324596015        2.2214142534        5.0315153365  SOLV      6167            0.0000000000
     18615      6178  TIP3      H2              2.0317596015        0.8090342534        4.8162053365  SOLV      6167            0.0000000000
     18616      6179  TIP3      OH2            10.2116196015        1.4921242534        3.8507153365  SOLV      6168            0.0000000000
     18617      6179  TIP3      H1             10.8580496015        1.1634442534        4.4754753365  SOLV      6168            0.0000000000
     18618      6179  TIP3      H2             10.7215596015        2.0100242534        3.2278553365  SOLV      6168            0.0000000000
     18619      6180  TIP3      OH2            -0.8905003985        3.7581442534        6.2120253365  SOLV      6169            0.0000000000
     18620      6180  TIP3      H1             -0.2368403985        3.2083142534        6.6440353365  SOLV      6169            0.0000000000
     18621      6180  TIP3      H2             -0.8665703985        3.4840442534        5.2952253365  SOLV      6169            0.0000000000
     18622      6181  TIP3      OH2             4.2659496015        5.3082742534        5.4271753365  SOLV      6170            0.0000000000
     18623      6181  TIP3      H1              4.8820496015        4.7818142534        5.9365753365  SOLV      6170            0.0000000000
     18624      6181  TIP3      H2              3.6798296015        4.6681442534        5.0235353365  SOLV      6170            0.0000000000
     18625      6182  TIP3      OH2            15.2482596015        1.9451342534       10.9465253365  SOLV      6171            0.0000000000
     18626      6182  TIP3      H1             14.5597196015        2.6032042534       10.8511853365  SOLV      6171            0.0000000000
     18627      6182  TIP3      H2             15.2637196015        1.7479242534       11.8830653365  SOLV      6171            0.0000000000
     18628      6183  TIP3      OH2             1.2995396015        0.2794042534        9.5239653365  SOLV      6172            0.0000000000
     18629      6183  TIP3      H1              1.0807096015        0.8094642534        8.7575653365  SOLV      6172            0.0000000000
     18630      6183  TIP3      H2              0.6316296015        0.5059542534       10.1711053365  SOLV      6172            0.0000000000
     18631      6184  TIP3      OH2             8.6685196015        9.7795142534        3.0678753365  SOLV      6173            0.0000000000
     18632      6184  TIP3      H1              8.3730296015        9.4567442534        2.2165653365  SOLV      6173            0.0000000000
     18633      6184  TIP3      H2              8.3442996015       10.6791842534        3.1091353365  SOLV      6173            0.0000000000
     18634      6185  TIP3      OH2             3.8686796015        7.9549742534        9.8113353365  SOLV      6174            0.0000000000
     18635      6185  TIP3      H1              3.1285896015        8.5531242534        9.9148553365  SOLV      6174            0.0000000000
     18636      6185  TIP3      H2              4.5826296015        8.5089342534        9.4956953365  SOLV      6174            0.0000000000
     18637      6186  TIP3      OH2            11.9754596015        0.7830542534        5.8313053365  SOLV      6175            0.0000000000
     18638      6186  TIP3      H1             11.7602596015        0.0173942534        6.3639053365  SOLV      6175            0.0000000000
     18639      6186  TIP3      H2             12.6311996015        1.2555142534        6.3441553365  SOLV      6175            0.0000000000
     18640      6187  TIP3      OH2             0.8932696015        2.1715842534        7.4761853365  SOLV      6176            0.0000000000
     18641      6187  TIP3      H1              1.5068996015        2.8043442534        7.8494253365  SOLV      6176            0.0000000000
     18642      6187  TIP3      H2              1.4053396015        1.6990842534        6.8198753365  SOLV      6176            0.0000000000
     18643      6188  TIP3      OH2             2.2761096015        9.9192742534       10.5984853365  SOLV      6177            0.0000000000
     18644      6188  TIP3      H1              2.2708696015       10.7986242534       10.2204153365  SOLV      6177            0.0000000000
     18645      6188  TIP3      H2              1.4225196015        9.8356842534       11.0234753365  SOLV      6177            0.0000000000
     18646      6189  TIP3      OH2            -1.6028003985        9.5900642534        1.3804153365  SOLV      6178            0.0000000000
     18647      6189  TIP3      H1             -1.8747103985        9.8191642534        0.4917053365  SOLV      6178            0.0000000000
     18648      6189  TIP3      H2             -1.5572303985       10.4279442534        1.8409453365  SOLV      6178            0.0000000000
     18649      6190  TIP3      OH2            12.0221696015       11.2116542534        8.0932653365  SOLV      6179            0.0000000000
     18650      6190  TIP3      H1             11.0805396015       11.2700442534        8.2549553365  SOLV      6179            0.0000000000
     18651      6190  TIP3      H2             12.2987796015       12.1177042534        7.9562353365  SOLV      6179            0.0000000000
     18652      6191  TIP3      OH2            12.3228696015       -0.5018157466        9.5106553365  SOLV      6180            0.0000000000
     18653      6191  TIP3      H1             11.5867896015        0.1088942534        9.4727853365  SOLV      6180            0.0000000000
     18654      6191  TIP3      H2             13.0062696015       -0.0869157466        8.9842953365  SOLV      6180            0.0000000000
     18655      6192  TIP3      OH2             5.3260096015       -2.4150857466        6.9764553365  SOLV      6181            0.0000000000
     18656      6192  TIP3      H1              5.2084296015       -3.3634857466        6.9222853365  SOLV      6181            0.0000000000
     18657      6192  TIP3      H2              4.4710196015       -2.0824757466        7.2495653365  SOLV      6181            0.0000000000
     18658      6193  TIP3      OH2            10.2742896015       12.9930042534        4.7184253365  SOLV      6182            0.0000000000
     18659      6193  TIP3      H1             10.6995196015       12.2857942534        4.2333853365  SOLV      6182            0.0000000000
     18660      6193  TIP3      H2             10.5912896015       13.7942742534        4.3016453365  SOLV      6182            0.0000000000
     18661      6194  TIP3      OH2            11.4339396015       10.8938542534        3.2270853365  SOLV      6183            0.0000000000
     18662      6194  TIP3      H1             11.1764196015       10.2038642534        2.6156753365  SOLV      6183            0.0000000000
     18663      6194  TIP3      H2             11.5050196015       10.4509742534        4.0726753365  SOLV      6183            0.0000000000
     18664      6195  TIP3      OH2            13.1199596015        9.4605242534       11.7044353365  SOLV      6184            0.0000000000
     18665      6195  TIP3      H1             13.2595896015        8.8687742534       10.9651353365  SOLV      6184            0.0000000000
     18666      6195  TIP3      H2             13.2872396015       10.3331142534       11.3483153365  SOLV      6184            0.0000000000
     18667      6196  TIP3      OH2             7.5924996015        6.4224742534        1.4770353365  SOLV      6185            0.0000000000
     18668      6196  TIP3      H1              6.8810496015        6.9574442534        1.1250853365  SOLV      6185            0.0000000000
     18669      6196  TIP3      H2              8.2834596015        6.4776842534        0.8169253365  SOLV      6185            0.0000000000
     18670      6197  TIP3      OH2             7.6464196015        4.8799042534       -1.4844646635  SOLV      6186            0.0000000000
     18671      6197  TIP3      H1              8.3474096015        4.9025942534       -0.8330646635  SOLV      6186            0.0000000000
     18672      6197  TIP3      H2              7.9487096015        4.2518742534       -2.1405346635  SOLV      6186            0.0000000000
     18673      6198  TIP3      OH2            14.9618896015        5.8003242534        9.7704753365  SOLV      6187            0.0000000000
     18674      6198  TIP3      H1             14.3092996015        6.4948842534        9.8595653365  SOLV      6187            0.0000000000
     18675      6198  TIP3      H2             15.4269196015        6.0104142534        8.9606353365  SOLV      6187            0.0000000000
     18676      6199  TIP3      OH2            10.9982696015        6.6318042534        2.4286253365  SOLV      6188            0.0000000000
     18677      6199  TIP3      H1             10.2663696015        6.8601742534        3.0016853365  SOLV      6188            0.0000000000
     18678      6199  TIP3      H2             11.4454896015        5.9180742534        2.8833753365  SOLV      6188            0.0000000000
     18679      6200  TIP3      OH2            10.8956196015        4.8060642534       11.4963253365  SOLV      6189            0.0000000000
     18680      6200  TIP3      H1             10.9755296015        5.5695042534       12.0681753365  SOLV      6189            0.0000000000
     18681      6200  TIP3      H2             10.2943896015        5.0853042534       10.8058353365  SOLV      6189            0.0000000000
     18682      6201  TIP3      OH2             2.6436396015        7.2624242534        4.3111253365  SOLV      6190            0.0000000000
     18683      6201  TIP3      H1              2.3131596015        6.8917642534        3.4928253365  SOLV      6190            0.0000000000
     18684      6201  TIP3      H2              3.2320496015        6.5918242534        4.6579553365  SOLV      6190            0.0000000000
     18685      6202  TIP3      OH2             4.0103896015       10.6904842534        6.9923453365  SOLV      6191            0.0000000000
     18686      6202  TIP3      H1              3.9155196015       10.1117942534        6.2358053365  SOLV      6191            0.0000000000
     18687      6202  TIP3      H2              4.7397496015       10.3190542534        7.4886253365  SOLV      6191            0.0000000000
     18688      6203  TIP3      OH2             3.0101896015        6.0309842534        7.9446253365  SOLV      6192            0.0000000000
     18689      6203  TIP3      H1              3.5754396015        6.1524042534        7.1817453365  SOLV      6192            0.0000000000
     18690      6203  TIP3      H2              3.3290796015        6.6684842534        8.5834753365  SOLV      6192            0.0000000000
     18691      6204  TIP3      OH2             9.3194096015       11.5341742534        8.6786753365  SOLV      6193            0.0000000000
     18692      6204  TIP3      H1              9.0790696015       12.1964842534        9.3265953365  SOLV      6193            0.0000000000
     18693      6204  TIP3      H2              9.1212296015       10.6996942534        9.1036353365  SOLV      6193            0.0000000000
     18694      6205  TIP3      OH2             3.8902596015       10.4302542534       12.6618153365  SOLV      6194            0.0000000000
     18695      6205  TIP3      H1              3.5790096015       11.2125742534       13.1171353365  SOLV      6194            0.0000000000
     18696      6205  TIP3      H2              3.2402796015       10.2771642534       11.9760153365  SOLV      6194            0.0000000000
     18697      6206  TIP3      OH2             9.8692196015        5.7940942534        0.1137453365  SOLV      6195            0.0000000000
     18698      6206  TIP3      H1             10.4487696015        5.9441242534        0.8606353365  SOLV      6195            0.0000000000
     18699      6206  TIP3      H2             10.2832196015        6.2648342534       -0.6096146635  SOLV      6195            0.0000000000
     18700      6207  TIP3      OH2             0.8102496015        6.6283642534       11.8903853365  SOLV      6196            0.0000000000
     18701      6207  TIP3      H1              0.8805696015        7.2790442534       12.5888853365  SOLV      6196            0.0000000000
     18702      6207  TIP3      H2             -0.0805303985        6.7311142534       11.5554753365  SOLV      6196            0.0000000000
     18703      6208  TIP3      OH2             7.5957096015       12.5309442534        3.5490553365  SOLV      6197            0.0000000000
     18704      6208  TIP3      H1              8.0694696015       12.8265742534        4.3264753365  SOLV      6197            0.0000000000
     18705      6208  TIP3      H2              7.0326396015       13.2691042534        3.3160153365  SOLV      6197            0.0000000000
     18706      6209  TIP3      OH2             2.1298496015       12.5017542534       13.4251953365  SOLV      6198            0.0000000000
     18707      6209  TIP3      H1              2.1373796015       12.3657242534       12.4777453365  SOLV      6198            0.0000000000
     18708      6209  TIP3      H2              1.2138896015       12.3845642534       13.6771953365  SOLV      6198            0.0000000000
     18709      6210  TIP3      OH2             1.6339096015        6.3318542534        1.9004053365  SOLV      6199            0.0000000000
     18710      6210  TIP3      H1              1.3420396015        7.1000242534        1.4095353365  SOLV      6199            0.0000000000
     18711      6210  TIP3      H2              0.9594296015        5.6724742534        1.7375453365  SOLV      6199            0.0000000000
     18712      6211  TIP3      OH2            14.7571996015       11.9103742534       -1.6968946635  SOLV      6200            0.0000000000
     18713      6211  TIP3      H1             14.8305496015       12.8493942534       -1.5263646635  SOLV      6200            0.0000000000
     18714      6211  TIP3      H2             15.6627096015       11.6052342534       -1.7531646635  SOLV      6200            0.0000000000
     18715      6212  TIP3      OH2            -2.2730803985        8.6947742534       10.7153853365  SOLV      6201            0.0000000000
     18716      6212  TIP3      H1             -2.7742403985        8.6667142534        9.9003553365  SOLV      6201            0.0000000000
     18717      6212  TIP3      H2             -2.2677103985        7.7890942534       11.0251153365  SOLV      6201            0.0000000000
     18718      6213  TIP3      OH2            -2.5228103985       11.4751542534        7.5994053365  SOLV      6202            0.0000000000
     18719      6213  TIP3      H1             -1.5767503985       11.3308542534        7.5803553365  SOLV      6202            0.0000000000
     18720      6213  TIP3      H2             -2.6351803985       12.2594342534        8.1365253365  SOLV      6202            0.0000000000
     18721      6214  TIP3      OH2            15.6750396015       12.1411242534       13.2817753365  SOLV      6203            0.0000000000
     18722      6214  TIP3      H1             15.6257196015       11.1859342534       13.2445353365  SOLV      6203            0.0000000000
     18723      6214  TIP3      H2             14.8482696015       12.4086542534       13.6831553365  SOLV      6203            0.0000000000
     18724      6215  TIP3      OH2             6.6534396015       11.7150442534       12.1579153365  SOLV      6204            0.0000000000
     18725      6215  TIP3      H1              6.7408996015       12.5415042534       12.6328253365  SOLV      6204            0.0000000000
     18726      6215  TIP3      H2              5.7899496015       11.3854242534       12.4068453365  SOLV      6204            0.0000000000
     18727      6216  TIP3      OH2             7.0680196015       15.4874142534        1.9639753365  SOLV      6205            0.0000000000
     18728      6216  TIP3      H1              6.9926196015       15.3661342534        1.0174953365  SOLV      6205            0.0000000000
     18729      6216  TIP3      H2              7.1008896015       16.4366842534        2.0824353365  SOLV      6205            0.0000000000
     18730      6217  TIP3      OH2             0.7213996015       14.2761142534        3.7448753365  SOLV      6206            0.0000000000
     18731      6217  TIP3      H1              0.8734396015       13.9281542534        4.6235253365  SOLV      6206            0.0000000000
     18732      6217  TIP3      H2             -0.1295603985       13.9198442534        3.4895953365  SOLV      6206            0.0000000000
     18733      6218  TIP3      OH2            10.1696196015       14.6414342534       -1.0337846635  SOLV      6207            0.0000000000
     18734      6218  TIP3      H1             10.5444596015       13.8970442534       -1.5045246635  SOLV      6207            0.0000000000
     18735      6218  TIP3      H2             10.1739896015       14.3714942534       -0.1154546635  SOLV      6207            0.0000000000
     18736      6219  TIP3      OH2             9.8384296015       14.5671442534        1.7154353365  SOLV      6208            0.0000000000
     18737      6219  TIP3      H1              8.9034096015       14.6673342534        1.8941353365  SOLV      6208            0.0000000000
     18738      6219  TIP3      H2             10.1186196015       13.8577442534        2.2937553365  SOLV      6208            0.0000000000
     18739      6220  TIP3      OH2            12.8270196015        3.6343742534       13.7619953365  SOLV      6209            0.0000000000
     18740      6220  TIP3      H1             12.4196996015        4.1149342534       13.0413253365  SOLV      6209            0.0000000000
     18741      6220  TIP3      H2             12.8675896015        2.7289742534       13.4540753365  SOLV      6209            0.0000000000
     18742      6221  TIP3      OH2            -0.0240303985       10.0183142534       11.7586653365  SOLV      6210            0.0000000000
     18743      6221  TIP3      H1              0.1920996015        9.6568742534       12.6182453365  SOLV      6210            0.0000000000
     18744      6221  TIP3      H2             -0.8795603985        9.6436942534       11.5490153365  SOLV      6210            0.0000000000
     18745      6222  TIP3      OH2             2.5947696015       -1.5116357466        7.7540853365  SOLV      6211            0.0000000000
     18746      6222  TIP3      H1              1.7331396015       -1.5988157466        7.3463753365  SOLV      6211            0.0000000000
     18747      6222  TIP3      H2              2.5723396015       -0.6556257466        8.1818453365  SOLV      6211            0.0000000000
     18748      6223  TIP3      OH2             7.2575496015       -1.7895957466       11.1287853365  SOLV      6212            0.0000000000
     18749      6223  TIP3      H1              7.6778596015       -2.2048857466       11.8818453365  SOLV      6212            0.0000000000
     18750      6223  TIP3      H2              6.3245096015       -1.9682657466       11.2459853365  SOLV      6212            0.0000000000
     18751      6224  TIP3      OH2            10.5840396015        1.9659242534       11.9822353365  SOLV      6213            0.0000000000
     18752      6224  TIP3      H1             10.0699896015        1.8401442534       12.7798353365  SOLV      6213            0.0000000000
     18753      6224  TIP3      H2             10.4285096015        2.8782342534       11.7378553365  SOLV      6213            0.0000000000
     18754      6225  TIP3      OH2            11.3465296015        6.8269242534       -2.2564646635  SOLV      6214            0.0000000000
     18755      6225  TIP3      H1             11.3886096015        6.6043142534       -3.1864646635  SOLV      6214            0.0000000000
     18756      6225  TIP3      H2             12.1957396015        7.2256342534       -2.0664746635  SOLV      6214            0.0000000000
     18757      6226  TIP3      OH2             2.6857796015        3.4538142534        8.8491053365  SOLV      6215            0.0000000000
     18758      6226  TIP3      H1              2.0439896015        3.4135442534        9.5581153365  SOLV      6215            0.0000000000
     18759      6226  TIP3      H2              2.7229796015        4.3802842534        8.6114053365  SOLV      6215            0.0000000000
     18760      6227  TIP3      OH2             8.2182396015        4.0908542534        2.5781853365  SOLV      6216            0.0000000000
     18761      6227  TIP3      H1              7.8092696015        4.9057142534        2.2866653365  SOLV      6216            0.0000000000
     18762      6227  TIP3      H2              8.9388596015        3.9508642534        1.9638953365  SOLV      6216            0.0000000000
     18763      6228  TIP3      OH2             7.3203996015        4.2664942534       14.0662553365  SOLV      6217            0.0000000000
     18764      6228  TIP3      H1              6.7577796015        3.5616542534       14.3870353365  SOLV      6217            0.0000000000
     18765      6228  TIP3      H2              8.1467396015        4.1456842534       14.5340153365  SOLV      6217            0.0000000000
     18766      6229  TIP3      OH2             9.2230096015        3.5368942534        5.3921553365  SOLV      6218            0.0000000000
     18767      6229  TIP3      H1              9.0274596015        4.1425742534        4.6772153365  SOLV      6218            0.0000000000
     18768      6229  TIP3      H2              9.4042696015        2.7034142534        4.9577853365  SOLV      6218            0.0000000000
     18769      6230  TIP3      OH2             0.4358296015        3.7741642534       10.7163053365  SOLV      6219            0.0000000000
     18770      6230  TIP3      H1              0.3977696015        4.1743242534       11.5850153365  SOLV      6219            0.0000000000
     18771      6230  TIP3      H2             -0.0550603985        2.9574042534       10.8065953365  SOLV      6219            0.0000000000
     18772      6231  TIP3      OH2             3.8015696015        1.1483942534       -2.4850946635  SOLV      6220            0.0000000000
     18773      6231  TIP3      H1              3.3706396015        0.7034042534       -1.7553546635  SOLV      6220            0.0000000000
     18774      6231  TIP3      H2              3.0834396015        1.5200242534       -2.9973446635  SOLV      6220            0.0000000000
     18775      6232  TIP3      OH2            -2.9560903985        0.8903442534        4.5667753365  SOLV      6221            0.0000000000
     18776      6232  TIP3      H1             -2.3253203985        0.8615542534        5.2861653365  SOLV      6221            0.0000000000
     18777      6232  TIP3      H2             -2.5066603985        0.4652142534        3.8363653365  SOLV      6221            0.0000000000
     18778      6233  TIP3      OH2             8.4869296015        5.1750242534       10.0633953365  SOLV      6222            0.0000000000
     18779      6233  TIP3      H1              8.8104096015        4.5439942534        9.4204453365  SOLV      6222            0.0000000000
     18780      6233  TIP3      H2              8.0468596015        4.6402442534       10.7241353365  SOLV      6222            0.0000000000
     18781      6234  TIP3      OH2             5.2642196015        1.1025742534        4.8475153365  SOLV      6223            0.0000000000
     18782      6234  TIP3      H1              4.3533296015        1.1592542534        5.1361153365  SOLV      6223            0.0000000000
     18783      6234  TIP3      H2              5.7695096015        1.0421242534        5.6582353365  SOLV      6223            0.0000000000
     18784      6235  TIP3      OH2             9.6694096015        0.3372042534        8.1116953365  SOLV      6224            0.0000000000
     18785      6235  TIP3      H1              8.9925696015        0.4685142534        8.7756653365  SOLV      6224            0.0000000000
     18786      6235  TIP3      H2              9.1838996015        0.1821542534        7.3014653365  SOLV      6224            0.0000000000
     18787      6236  TIP3      OH2            12.9569196015       16.0087442534       14.3884553365  SOLV      6225            0.0000000000
     18788      6236  TIP3      H1             13.1567896015       16.4329342534       13.5539853365  SOLV      6225            0.0000000000
     18789      6236  TIP3      H2             13.6122896015       16.3525642534       14.9954953365  SOLV      6225            0.0000000000
     18790      6237  TIP3      OH2             0.5548996015        8.4828742534       13.9965053365  SOLV      6226            0.0000000000
     18791      6237  TIP3      H1              1.2871396015        8.7374642534       14.5579553365  SOLV      6226            0.0000000000
     18792      6237  TIP3      H2             -0.2252303985        8.6874142534       14.5120453365  SOLV      6226            0.0000000000
     18793      6238  TIP3      OH2             6.5841896015        3.8898742534        6.7344753365  SOLV      6227            0.0000000000
     18794      6238  TIP3      H1              7.1485296015        3.3435342534        6.1874353365  SOLV      6227            0.0000000000
     18795      6238  TIP3      H2              6.4365296015        3.3680642534        7.5232353365  SOLV      6227            0.0000000000
     18796      6239  TIP3      OH2             5.2107796015        2.2784842534        9.1485153365  SOLV      6228            0.0000000000
     18797      6239  TIP3      H1              4.3753096015        2.7324342534        9.2587553365  SOLV      6228            0.0000000000
     18798      6239  TIP3      H2              5.7348396015        2.5543342534        9.9005053365  SOLV      6228            0.0000000000
     18799      6240  TIP3      OH2             5.7550396015        8.4912542534        0.8331553365  SOLV      6229            0.0000000000
     18800      6240  TIP3      H1              5.0101396015        7.9837842534        0.5109453365  SOLV      6229            0.0000000000
     18801      6240  TIP3      H2              5.6207596015        8.5400542534        1.7796353365  SOLV      6229            0.0000000000
     18802      6241  TIP3      OH2            12.9049296015        7.6240742534        9.6199153365  SOLV      6230            0.0000000000
     18803      6241  TIP3      H1             13.5468096015        8.0807042534        9.0761353365  SOLV      6230            0.0000000000
     18804      6241  TIP3      H2             12.0746196015        7.7373142534        9.1573253365  SOLV      6230            0.0000000000
     18805      6242  TIP3      OH2             7.2742496015        8.6755842534       12.0700653365  SOLV      6231            0.0000000000
     18806      6242  TIP3      H1              6.9288596015        8.2938242534       12.8770253365  SOLV      6231            0.0000000000
     18807      6242  TIP3      H2              7.0742596015        9.6089442534       12.1413553365  SOLV      6231            0.0000000000
     18808      6243  TIP3      OH2            10.3710696015        3.1725142534        0.6931553365  SOLV      6232            0.0000000000
     18809      6243  TIP3      H1             11.2629696015        3.0350142534        1.0122753365  SOLV      6232            0.0000000000
     18810      6243  TIP3      H2             10.4274296015        3.9631242534        0.1565053365  SOLV      6232            0.0000000000
     18811      6244  TIP3      OH2             0.8798696015        7.7862542534        6.6029453365  SOLV      6233            0.0000000000
     18812      6244  TIP3      H1              1.6245896015        7.7838242534        6.0015953365  SOLV      6233            0.0000000000
     18813      6244  TIP3      H2              0.9575296015        6.9626342534        7.0844553365  SOLV      6233            0.0000000000
     18814      6245  TIP3      OH2             7.8804496015        9.9496842534       -0.1413846635  SOLV      6234            0.0000000000
     18815      6245  TIP3      H1              7.5852896015       10.7764742534        0.2400953365  SOLV      6234            0.0000000000
     18816      6245  TIP3      H2              7.1774496015        9.3303742534        0.0547553365  SOLV      6234            0.0000000000
     18817      6246  TIP3      OH2            -2.1121603985        6.2469442534       11.9177953365  SOLV      6235            0.0000000000
     18818      6246  TIP3      H1             -1.8893003985        5.8289042534       12.7495453365  SOLV      6235            0.0000000000
     18819      6246  TIP3      H2             -2.7141503985        5.6344442534       11.4950753365  SOLV      6235            0.0000000000
     18820      6247  TIP3      OH2             4.9043296015        5.7639342534       14.1307653365  SOLV      6236            0.0000000000
     18821      6247  TIP3      H1              4.6084096015        5.5982342534       13.2356753365  SOLV      6236            0.0000000000
     18822      6247  TIP3      H2              5.8358496015        5.5439642534       14.1201553365  SOLV      6236            0.0000000000
     18823      6248  TIP3      OH2             9.5246096015       11.1371342534       12.0205653365  SOLV      6237            0.0000000000
     18824      6248  TIP3      H1              8.6240396015       11.3203942534       11.7529553365  SOLV      6237            0.0000000000
     18825      6248  TIP3      H2              9.5587196015       11.3960642534       12.9414453365  SOLV      6237            0.0000000000
     18826      6249  TIP3      OH2            15.2191396015        9.1820942534       13.2249753365  SOLV      6238            0.0000000000
     18827      6249  TIP3      H1             14.3679896015        9.4204742534       12.8576153365  SOLV      6238            0.0000000000
     18828      6249  TIP3      H2             15.8094796015        9.1654142534       12.4716853365  SOLV      6238            0.0000000000
     18829      6250  TIP3      OH2            13.5511096015       12.1679642534        0.8530353365  SOLV      6239            0.0000000000
     18830      6250  TIP3      H1             13.1782196015       11.3423442534        1.1620953365  SOLV      6239            0.0000000000
     18831      6250  TIP3      H2             13.8284596015       11.9849042534       -0.0446246635  SOLV      6239            0.0000000000
     18832      6251  TIP3      OH2            10.7114996015        6.9759142534        7.8742253365  SOLV      6240            0.0000000000
     18833      6251  TIP3      H1              9.7831896015        6.7441042534        7.8471553365  SOLV      6240            0.0000000000
     18834      6251  TIP3      H2             11.1626096015        6.1988942534        7.5441053365  SOLV      6240            0.0000000000
     18835      6252  TIP3      OH2             3.2548096015       11.3040742534        4.0070953365  SOLV      6241            0.0000000000
     18836      6252  TIP3      H1              3.7820296015       12.0775142534        3.8069753365  SOLV      6241            0.0000000000
     18837      6252  TIP3      H2              2.3746596015       11.5289942534        3.7054953365  SOLV      6241            0.0000000000
     18838      6253  TIP3      OH2            -0.9904203985        6.1664842534       -1.4056646635  SOLV      6242            0.0000000000
     18839      6253  TIP3      H1             -0.3744303985        6.7932042534       -1.0261846635  SOLV      6242            0.0000000000
     18840      6253  TIP3      H2             -1.8521603985        6.4824642534       -1.1340146635  SOLV      6242            0.0000000000
     18841      6254  TIP3      OH2             4.6820396015        8.9670642534        3.5835253365  SOLV      6243            0.0000000000
     18842      6254  TIP3      H1              4.4410396015        9.8925042534        3.6250553365  SOLV      6243            0.0000000000
     18843      6254  TIP3      H2              3.9413996015        8.5081942534        3.9799153365  SOLV      6243            0.0000000000
     18844      6255  TIP3      OH2             5.1966996015       13.1164242534        9.8986353365  SOLV      6244            0.0000000000
     18845      6255  TIP3      H1              5.5591696015       13.9709842534        9.6650753365  SOLV      6244            0.0000000000
     18846      6255  TIP3      H2              5.7282196015       12.8245842534       10.6392653365  SOLV      6244            0.0000000000
     18847      6256  TIP3      OH2             3.3651196015       13.9888242534        3.1287453365  SOLV      6245            0.0000000000
     18848      6256  TIP3      H1              2.4151696015       14.0945642534        3.1800753365  SOLV      6245            0.0000000000
     18849      6256  TIP3      H2              3.7169296015       14.8095642534        3.4734953365  SOLV      6245            0.0000000000
     18850      6257  TIP3      OH2             8.7407796015        9.2154942534        9.5991953365  SOLV      6246            0.0000000000
     18851      6257  TIP3      H1              8.3149096015        8.9876642534       10.4255953365  SOLV      6246            0.0000000000
     18852      6257  TIP3      H2              9.3213596015        8.4766742534        9.4167253365  SOLV      6246            0.0000000000
     18853      6258  TIP3      OH2            10.9436696015       10.1445442534       -1.3269046635  SOLV      6247            0.0000000000
     18854      6258  TIP3      H1             11.2969796015        9.7645242534       -0.5225546635  SOLV      6247            0.0000000000
     18855      6258  TIP3      H2              9.9950196015       10.0510242534       -1.2399746635  SOLV      6247            0.0000000000
     18856      6259  TIP3      OH2            11.3991996015       13.7674442534       12.0686753365  SOLV      6248            0.0000000000
     18857      6259  TIP3      H1             10.7975196015       13.2117342534       11.5733053365  SOLV      6248            0.0000000000
     18858      6259  TIP3      H2             11.6805696015       14.4344242534       11.4424153365  SOLV      6248            0.0000000000
     18859      6260  TIP3      OH2            15.4471096015       14.6237942534       -1.1258846635  SOLV      6249            0.0000000000
     18860      6260  TIP3      H1             16.1908996015       15.2098442534       -1.2657246635  SOLV      6249            0.0000000000
     18861      6260  TIP3      H2             14.7529196015       15.1923742534       -0.7926446635  SOLV      6249            0.0000000000
     18862      6261  TIP3      OH2            -0.4782103985        1.0002142534       11.4759353365  SOLV      6250            0.0000000000
     18863      6261  TIP3      H1             -1.3709803985        1.3387542534       11.4083353365  SOLV      6250            0.0000000000
     18864      6261  TIP3      H2             -0.5769303985        0.1448242534       11.8940153365  SOLV      6250            0.0000000000
     18865      6262  TIP3      OH2            11.8095996015        8.8167442534        0.8998853365  SOLV      6251            0.0000000000
     18866      6262  TIP3      H1             11.5323596015        8.0886742534        1.4559953365  SOLV      6251            0.0000000000
     18867      6262  TIP3      H2             12.7368996015        8.9359442534        1.1051453365  SOLV      6251            0.0000000000
     18868      6263  TIP3      OH2            -0.8270103985       12.8046542534        9.9108753365  SOLV      6252            0.0000000000
     18869      6263  TIP3      H1             -0.6099803985       11.8728942534        9.8798453365  SOLV      6252            0.0000000000
     18870      6263  TIP3      H2             -0.5806603985       13.0791542534       10.7941553365  SOLV      6252            0.0000000000
     18871      6264  TIP3      OH2             5.0344496015       11.2561542534       -2.8799046635  SOLV      6253            0.0000000000
     18872      6264  TIP3      H1              5.2734296015       10.5079642534       -3.4270146635  SOLV      6253            0.0000000000
     18873      6264  TIP3      H2              4.7655796015       10.8683242534       -2.0471246635  SOLV      6253            0.0000000000
     18874      6265  TIP3      OH2             3.9715096015       10.8265342534       -0.4236446635  SOLV      6254            0.0000000000
     18875      6265  TIP3      H1              4.1183096015       10.3065142534        0.3664453365  SOLV      6254            0.0000000000
     18876      6265  TIP3      H2              3.9686796015       11.7332942534       -0.1170546635  SOLV      6254            0.0000000000
     18877      6266  TIP3      OH2             0.4246196015        8.0788642534        0.0868953365  SOLV      6255            0.0000000000
     18878      6266  TIP3      H1             -0.2614503985        8.4311142534        0.6538653365  SOLV      6255            0.0000000000
     18879      6266  TIP3      H2              0.9474096015        8.8418242534       -0.1596746635  SOLV      6255            0.0000000000
     18880      6267  TIP3      OH2             8.2561296015        0.7412442534       10.3657953365  SOLV      6256            0.0000000000
     18881      6267  TIP3      H1              8.9549196015        0.8151142534       11.0157653365  SOLV      6256            0.0000000000
     18882      6267  TIP3      H2              7.8752696015       -0.1232557466       10.5200853365  SOLV      6256            0.0000000000
     18883      6268  TIP3      OH2             6.7092296015       12.5238942534        0.3257753365  SOLV      6257            0.0000000000
     18884      6268  TIP3      H1              5.8928396015       13.0208642534        0.3782053365  SOLV      6257            0.0000000000
     18885      6268  TIP3      H2              7.2388596015       12.9992442534       -0.3143446635  SOLV      6257            0.0000000000
     18886      6269  TIP3      OH2             6.7762496015        3.1075642534       11.4825253365  SOLV      6258            0.0000000000
     18887      6269  TIP3      H1              6.8952796015        3.6811042534       12.2395653365  SOLV      6258            0.0000000000
     18888      6269  TIP3      H2              7.4317096015        2.4195042534       11.5973053365  SOLV      6258            0.0000000000
     18889      6270  TIP3      OH2             4.0475396015       13.5676142534        0.3074653365  SOLV      6259            0.0000000000
     18890      6270  TIP3      H1              4.2084096015       14.3673642534       -0.1932746635  SOLV      6259            0.0000000000
     18891      6270  TIP3      H2              3.8503196015       13.8742142534        1.1925253365  SOLV      6259            0.0000000000
     18892      6271  TIP3      OH2            12.9808296015        1.0145942534       12.3174953365  SOLV      6260            0.0000000000
     18893      6271  TIP3      H1             12.0644096015        1.2767642534       12.2298653365  SOLV      6260            0.0000000000
     18894      6271  TIP3      H2             13.3163296015        1.0114942534       11.4210253365  SOLV      6260            0.0000000000
     18895      6272  TIP3      OH2            11.5829296015        4.7646942534        6.4132253365  SOLV      6261            0.0000000000
     18896      6272  TIP3      H1             10.7853696015        4.3497142534        6.0847253365  SOLV      6261            0.0000000000
     18897      6272  TIP3      H2             12.0280396015        4.0740642534        6.9042753365  SOLV      6261            0.0000000000
     18898      6273  TIP3      OH2             1.0405096015       10.6927542534       -1.0163246635  SOLV      6262            0.0000000000
     18899      6273  TIP3      H1              1.6326596015       11.3922342534       -0.7400846635  SOLV      6262            0.0000000000
     18900      6273  TIP3      H2              1.4998096015       10.2597042534       -1.7358646635  SOLV      6262            0.0000000000
     18901      6274  TIP3      OH2            -0.6435703985        3.3570542534       -1.9003846635  SOLV      6263            0.0000000000
     18902      6274  TIP3      H1             -0.6883103985        4.2963642534       -1.7216846635  SOLV      6263            0.0000000000
     18903      6274  TIP3      H2             -1.5312503985        3.1215442534       -2.1701746635  SOLV      6263            0.0000000000
     18904      6275  TIP3      OH2            12.6693896015       14.0209442534        8.0355753365  SOLV      6264            0.0000000000
     18905      6275  TIP3      H1             12.5138196015       14.6993842534        7.3785053365  SOLV      6264            0.0000000000
     18906      6275  TIP3      H2             13.6020296015       14.0928742534        8.2386353365  SOLV      6264            0.0000000000
     18907      6276  TIP3      OH2             0.1646296015       -1.8612857466        6.7727153365  SOLV      6265            0.0000000000
     18908      6276  TIP3      H1             -0.0643903985       -1.8020357466        5.8452153365  SOLV      6265            0.0000000000
     18909      6276  TIP3      H2             -0.2780303985       -2.6527357466        7.0791253365  SOLV      6265            0.0000000000
     18910      6277  TIP3      OH2            -0.9050403985       12.0794242534        2.9332953365  SOLV      6266            0.0000000000
     18911      6277  TIP3      H1             -1.7371803985       12.5516942534        2.9604353365  SOLV      6266            0.0000000000
     18912      6277  TIP3      H2             -0.3592103985       12.5891842534        2.3346053365  SOLV      6266            0.0000000000
     18913      6278  TIP3      OH2            -1.6166703985       14.6917942534       14.2630953365  SOLV      6267            0.0000000000
     18914      6278  TIP3      H1             -1.0764503985       14.4751942534       15.0230153365  SOLV      6267            0.0000000000
     18915      6278  TIP3      H2             -2.0978703985       13.8863942534       14.0733453365  SOLV      6267            0.0000000000
     18916      6279  TIP3      OH2             2.9806696015       13.6112342534       15.8835153365  SOLV      6268            0.0000000000
     18917      6279  TIP3      H1              3.7483896015       13.1523142534       16.2244353365  SOLV      6268            0.0000000000
     18918      6279  TIP3      H2              2.9592896015       13.3852142534       14.9536353365  SOLV      6268            0.0000000000
     18919      6280  TIP3      OH2             7.0726296015       13.1192942534       -2.7413046635  SOLV      6269            0.0000000000
     18920      6280  TIP3      H1              6.4287296015       12.4881542534       -2.4199346635  SOLV      6269            0.0000000000
     18921      6280  TIP3      H2              7.8344596015       12.5880942534       -2.9729546635  SOLV      6269            0.0000000000
     18922      6281  TIP3      OH2             9.5575396015       11.9913442534       14.6126653365  SOLV      6270            0.0000000000
     18923      6281  TIP3      H1              9.2064896015       11.1346442534       14.8557053365  SOLV      6270            0.0000000000
     18924      6281  TIP3      H2             10.2838596015       12.1340142534       15.2195653365  SOLV      6270            0.0000000000
     18925      6282  TIP3      OH2            11.6769196015       12.9362842534       -2.5075046635  SOLV      6271            0.0000000000
     18926      6282  TIP3      H1             11.9599596015       12.1418042534       -2.0548146635  SOLV      6271            0.0000000000
     18927      6282  TIP3      H2             12.4167096015       13.1693842534       -3.0683946635  SOLV      6271            0.0000000000
     18928      6283  TIP3      OH2            -1.7097203985        8.5022042534       15.2175253365  SOLV      6272            0.0000000000
     18929      6283  TIP3      H1             -1.5656703985        7.6002742534       14.9311953365  SOLV      6272            0.0000000000
     18930      6283  TIP3      H2             -2.4819803985        8.7884142534       14.7297553365  SOLV      6272            0.0000000000
     18931      6284  TIP3      OH2             2.6316496015        8.8457742534       -2.6500146635  SOLV      6273            0.0000000000
     18932      6284  TIP3      H1              2.6960596015        8.0517342534       -2.1193746635  SOLV      6273            0.0000000000
     18933      6284  TIP3      H2              3.2845696015        8.7270542534       -3.3398146635  SOLV      6273            0.0000000000
     18934      6285  TIP3      OH2             4.9458896015        8.4720142534       14.6501653365  SOLV      6274            0.0000000000
     18935      6285  TIP3      H1              4.6172696015        8.7428242534       13.7929053365  SOLV      6274            0.0000000000
     18936      6285  TIP3      H2              5.0977096015        7.5309942534       14.5626653365  SOLV      6274            0.0000000000
     18937      6286  TIP3      OH2             7.9839896015        9.8929442534       -2.9142146635  SOLV      6275            0.0000000000
     18938      6286  TIP3      H1              7.7153996015       10.0731542534       -2.0133246635  SOLV      6275            0.0000000000
     18939      6286  TIP3      H2              7.7775496015        8.9675642534       -3.0456346635  SOLV      6275            0.0000000000
     18940      6287  TIP3      OH2            10.6804096015        8.3877442534       12.0333953365  SOLV      6276            0.0000000000
     18941      6287  TIP3      H1             11.4258896015        8.9761142534       11.9137953365  SOLV      6276            0.0000000000
     18942      6287  TIP3      H2              9.9230896015        8.9697142534       12.0967053365  SOLV      6276            0.0000000000
     18943      6288  TIP3      OH2            -0.8770703985        5.7025342534       14.6374553365  SOLV      6277            0.0000000000
     18944      6288  TIP3      H1             -0.4689503985        4.8451942534       14.5165153365  SOLV      6277            0.0000000000
     18945      6288  TIP3      H2             -1.1373103985        5.7166642534       15.5584853365  SOLV      6277            0.0000000000
     18946      6289  TIP3      OH2             3.7810296015        6.8183942534       -0.3442146635  SOLV      6278            0.0000000000
     18947      6289  TIP3      H1              3.3212296015        6.3342242534        0.3416353365  SOLV      6278            0.0000000000
     18948      6289  TIP3      H2              4.0358996015        6.1499342534       -0.9801646635  SOLV      6278            0.0000000000
     18949      6290  TIP3      OH2             3.0699596015        4.7111042534       12.0117453365  SOLV      6279            0.0000000000
     18950      6290  TIP3      H1              2.4515696015        5.3857642534       12.2922153365  SOLV      6279            0.0000000000
     18951      6290  TIP3      H2              3.4140796015        5.0324942534       11.1783653365  SOLV      6279            0.0000000000
     18952      6291  TIP3      OH2             4.8520696015        5.0615742534       -2.0818946635  SOLV      6280            0.0000000000
     18953      6291  TIP3      H1              4.6715696015        4.9066942534       -3.0090646635  SOLV      6280            0.0000000000
     18954      6291  TIP3      H2              5.8021196015        5.1694442534       -2.0371046635  SOLV      6280            0.0000000000
     18955      6292  TIP3      OH2             8.0897796015        7.1826342534       15.2892253365  SOLV      6281            0.0000000000
     18956      6292  TIP3      H1              9.0428996015        7.2665442534       15.2618253365  SOLV      6281            0.0000000000
     18957      6292  TIP3      H2              7.9292396015        6.4708142534       15.9087153365  SOLV      6281            0.0000000000
     18958      6293  TIP3      OH2            14.2418996015        7.4159942534       -2.6360846635  SOLV      6282            0.0000000000
     18959      6293  TIP3      H1             13.9683796015        6.9915442534       -3.4492546635  SOLV      6282            0.0000000000
     18960      6293  TIP3      H2             14.2813096015        8.3474442534       -2.8530446635  SOLV      6282            0.0000000000
     18961      6294  TIP3      OH2             3.4093296015        2.0661842534       13.0940553365  SOLV      6283            0.0000000000
     18962      6294  TIP3      H1              3.5594196015        1.3373142534       12.4920253365  SOLV      6283            0.0000000000
     18963      6294  TIP3      H2              3.4115696015        2.8433542534       12.5352753365  SOLV      6283            0.0000000000
     18964      6295  TIP3      OH2             3.8218996015        0.4357642534       10.5867953365  SOLV      6284            0.0000000000
     18965      6295  TIP3      H1              4.3576496015        0.8874342534        9.9347253365  SOLV      6284            0.0000000000
     18966      6295  TIP3      H2              2.9698596015        0.3277442534       10.1642053365  SOLV      6284            0.0000000000
     18967      6296  TIP3      OH2             5.4037396015        5.8753842534       10.8263153365  SOLV      6285            0.0000000000
     18968      6296  TIP3      H1              6.1542196015        5.7191342534       10.2530953365  SOLV      6285            0.0000000000
     18969      6296  TIP3      H2              5.0645696015        6.7270442534       10.5508653365  SOLV      6285            0.0000000000
     18970      6297  TIP3      OH2             9.8193596015        3.6905642534       15.8548453365  SOLV      6286            0.0000000000
     18971      6297  TIP3      H1             10.0114896015        2.7595042534       15.7432953365  SOLV      6286            0.0000000000
     18972      6297  TIP3      H2             10.6769896015        4.1155142534       15.8443853365  SOLV      6286            0.0000000000
     18973      6298  TIP3      OH2            11.1360796015        6.4790842534       13.9321153365  SOLV      6287            0.0000000000
     18974      6298  TIP3      H1             10.8545796015        7.1885442534       13.3544953365  SOLV      6287            0.0000000000
     18975      6298  TIP3      H2             12.0785096015        6.4063842534       13.7812353365  SOLV      6287            0.0000000000
     18976      6299  TIP3      OH2             1.8879596015        3.2645342534       15.0056153365  SOLV      6288            0.0000000000
     18977      6299  TIP3      H1              1.1208596015        2.7320142534       14.7953753365  SOLV      6288            0.0000000000
     18978      6299  TIP3      H2              2.5668596015        2.9545742534       14.4062453365  SOLV      6288            0.0000000000
     18979      6300  TIP3      OH2             4.6274496015       -2.1076657466       11.0181553365  SOLV      6289            0.0000000000
     18980      6300  TIP3      H1              4.5294096015       -1.1613457466       10.9127753365  SOLV      6289            0.0000000000
     18981      6300  TIP3      H2              3.8850696015       -2.4802857466       10.5425053365  SOLV      6289            0.0000000000
     18982      6301  TIP3      OH2             5.8914996015        2.2138742534       14.5819953365  SOLV      6290            0.0000000000
     18983      6301  TIP3      H1              5.6560396015        1.9945442534       15.4834853365  SOLV      6290            0.0000000000
     18984      6301  TIP3      H2              5.1081896015        2.0069942534       14.0722453365  SOLV      6290            0.0000000000
     18985      6302  TIP3      OH2             8.6071596015        1.3412242534       13.6573453365  SOLV      6291            0.0000000000
     18986      6302  TIP3      H1              7.6596996015        1.3731942534       13.7896753365  SOLV      6291            0.0000000000
     18987      6302  TIP3      H2              8.9198296015        0.7159342534       14.3111653365  SOLV      6291            0.0000000000
     18988      6303  TIP3      OH2            10.2413096015       -0.0246657466       15.6625353365  SOLV      6292            0.0000000000
     18989      6303  TIP3      H1             10.1444896015       -0.9769357466       15.6567253365  SOLV      6292            0.0000000000
     18990      6303  TIP3      H2              9.9196196015        0.2440142534       16.5230853365  SOLV      6292            0.0000000000
     18991      6304  TIP3      OH2             0.0682396015        1.1849142534       14.7100853365  SOLV      6293            0.0000000000
     18992      6304  TIP3      H1              0.2799796015        0.4785242534       14.0998353365  SOLV      6293            0.0000000000
     18993      6304  TIP3      H2             -0.0430103985        0.7475142534       15.5542053365  SOLV      6293            0.0000000000
     18994      6305  TIP3      OH2             4.8492596015       -2.8139257466       13.6894353365  SOLV      6294            0.0000000000
     18995      6305  TIP3      H1              5.5610996015       -3.4537057466       13.6753453365  SOLV      6294            0.0000000000
     18996      6305  TIP3      H2              4.7482996015       -2.5470957466       12.7757453365  SOLV      6294            0.0000000000
     18997      6306  TIP3      OH2             5.2030096015       -1.1310857466       15.7430653365  SOLV      6295            0.0000000000
     18998      6306  TIP3      H1              5.0712296015       -1.6067057466       14.9229153365  SOLV      6295            0.0000000000
     18999      6306  TIP3      H2              4.6037496015       -0.3867257466       15.6877753365  SOLV      6295            0.0000000000
     19000      6307  TIP3      OH2             4.7492396015       15.7519442534       -1.0805346635  SOLV      6296            0.0000000000
     19001      6307  TIP3      H1              5.6823096015       15.9098142534       -0.9366946635  SOLV      6296            0.0000000000
     19002      6307  TIP3      H2              4.4851196015       16.4272442534       -1.7053846635  SOLV      6296            0.0000000000
     19003      6308  TIP3      OH2            -1.6822703985       10.3883242534       -1.5977246635  SOLV      6297            0.0000000000
     19004      6308  TIP3      H1             -0.7683503985       10.4672142534       -1.3243346635  SOLV      6297            0.0000000000
     19005      6308  TIP3      H2             -1.6749603985        9.7012842534       -2.2641646635  SOLV      6297            0.0000000000
     19006      6309  TIP3      OH2            -3.0332103985       15.7811742534        3.4796653365  SOLV      6298            0.0000000000
     19007      6309  TIP3      H1             -3.6805003985       15.3193442534        2.9467853365  SOLV      6298            0.0000000000
     19008      6309  TIP3      H2             -2.6787503985       15.1095042534        4.0622853365  SOLV      6298            0.0000000000
     19009      6310  TIP3      OH2            -2.1632903985       13.8618742534        5.2842853365  SOLV      6299            0.0000000000
     19010      6310  TIP3      H1             -2.4976103985       12.9816042534        5.4563053365  SOLV      6299            0.0000000000
     19011      6310  TIP3      H2             -1.9410503985       14.2073742534        6.1488453365  SOLV      6299            0.0000000000
     19012      6311  TIP3      OH2            15.3851896015       14.6715142534        8.2647653365  SOLV      6300            0.0000000000
     19013      6311  TIP3      H1             15.3638596015       14.8563542534        9.2037053365  SOLV      6300            0.0000000000
     19014      6311  TIP3      H2             16.0758096015       15.2399142534        7.9239053365  SOLV      6300            0.0000000000
     19015      6312  TIP3      OH2            14.9484796015       14.2386242534       11.1866753365  SOLV      6301            0.0000000000
     19016      6312  TIP3      H1             14.4613496015       13.5030342534       10.8154153365  SOLV      6301            0.0000000000
     19017      6312  TIP3      H2             15.4977496015       13.8450142534       11.8646153365  SOLV      6301            0.0000000000
     19018      6313  TIP3      OH2            13.3992096015       10.0284342534       15.8247053365  SOLV      6302            0.0000000000
     19019      6313  TIP3      H1             12.5333196015        9.9234042534       16.2189353365  SOLV      6302            0.0000000000
     19020      6313  TIP3      H2             13.7757996015       10.7867642534       16.2711753365  SOLV      6302            0.0000000000
     19021      6314  TIP3      OH2            14.7001796015        8.2848042534        1.3389553365  SOLV      6303            0.0000000000
     19022      6314  TIP3      H1             15.5503196015        8.7058942534        1.4661153365  SOLV      6303            0.0000000000
     19023      6314  TIP3      H2             14.7056896015        7.5448142534        1.9460953365  SOLV      6303            0.0000000000
     19024      6315  TIP3      OH2            15.0947396015        6.3385442534        3.1625253365  SOLV      6304            0.0000000000
     19025      6315  TIP3      H1             14.3681996015        5.8588042534        3.5602853365  SOLV      6304            0.0000000000
     19026      6315  TIP3      H2             15.6760696015        6.5440142534        3.8946853365  SOLV      6304            0.0000000000
     19027      6316  TIP3      OH2            14.8538596015        9.1232942534        8.1102853365  SOLV      6305            0.0000000000
     19028      6316  TIP3      H1             15.6872796015        8.7452942534        7.8296453365  SOLV      6305            0.0000000000
     19029      6316  TIP3      H2             14.9658896015       10.0664142534        7.9911953365  SOLV      6305            0.0000000000
     19030      6317  TIP3      OH2            13.3400896015       12.0010442534       10.4171253365  SOLV      6306            0.0000000000
     19031      6317  TIP3      H1             12.6926196015       12.3261942534       11.0426453365  SOLV      6306            0.0000000000
     19032      6317  TIP3      H2             12.8224896015       11.5608142534        9.7429553365  SOLV      6306            0.0000000000
     19033      6318  TIP3      OH2            15.3630496015        6.2393942534       -0.4463446635  SOLV      6307            0.0000000000
     19034      6318  TIP3      H1             14.8411596015        6.5958042534       -1.1652546635  SOLV      6307            0.0000000000
     19035      6318  TIP3      H2             15.3299696015        6.9141742534        0.2317453365  SOLV      6307            0.0000000000
     19036      6319  TIP3      OH2            12.8814196015        4.8591942534        3.7253953365  SOLV      6308            0.0000000000
     19037      6319  TIP3      H1             12.7312996015        3.9140542534        3.7051753365  SOLV      6308            0.0000000000
     19038      6319  TIP3      H2             12.5278696015        5.1403342534        4.5693053365  SOLV      6308            0.0000000000
     19039      6320  TIP3      OH2            -2.0833403985        6.9374142534        7.7357753365  SOLV      6309            0.0000000000
     19040      6320  TIP3      H1             -1.8990503985        6.8555842534        6.8000653365  SOLV      6309            0.0000000000
     19041      6320  TIP3      H2             -1.2340503985        6.8131142534        8.1594153365  SOLV      6309            0.0000000000
     19042      6321  TIP3      OH2            13.7377096015        6.8295242534       13.3642253365  SOLV      6310            0.0000000000
     19043      6321  TIP3      H1             14.3204396015        6.0947542534       13.5559453365  SOLV      6310            0.0000000000
     19044      6321  TIP3      H2             14.3016396015        7.6015542534       13.4108053365  SOLV      6310            0.0000000000
     19045      6322  TIP3      OH2            15.2344196015        4.7321042534       14.0487653365  SOLV      6311            0.0000000000
     19046      6322  TIP3      H1             14.3710896015        4.3533142534       13.8832353365  SOLV      6311            0.0000000000
     19047      6322  TIP3      H2             15.8387896015        3.9935842534       13.9743453365  SOLV      6311            0.0000000000
     19048      6323  TIP3      OH2            12.5918996015        2.4417742534        2.1879053365  SOLV      6312            0.0000000000
     19049      6323  TIP3      H1             12.8716096015        1.5348142534        2.3120753365  SOLV      6312            0.0000000000
     19050      6323  TIP3      H2             13.3510696015        2.8759242534        1.7988253365  SOLV      6312            0.0000000000
     19051      6324  TIP3      OH2            13.2037296015        3.0235142534        7.6237953365  SOLV      6313            0.0000000000
     19052      6324  TIP3      H1             14.1365296015        3.2355042534        7.5893953365  SOLV      6313            0.0000000000
     19053      6324  TIP3      H2             12.9684796015        3.1247242534        8.5460953365  SOLV      6313            0.0000000000
     19054      6325  TIP3      OH2            13.2329196015        3.7600442534       10.3997353365  SOLV      6314            0.0000000000
     19055      6325  TIP3      H1             12.3900496015        4.0280842534       10.7657153365  SOLV      6314            0.0000000000
     19056      6325  TIP3      H2             13.6753496015        4.5822342534       10.1888453365  SOLV      6314            0.0000000000
     19057      6326  TIP3      OH2            -2.4858603985        2.2079142534       13.8766553365  SOLV      6315            0.0000000000
     19058      6326  TIP3      H1             -1.5663703985        2.0857442534       14.1129653365  SOLV      6315            0.0000000000
     19059      6326  TIP3      H2             -2.9354103985        1.4578842534       14.2660053365  SOLV      6315            0.0000000000
     19060      6327  TIP3      OH2            15.5160796015       -2.2599357466       15.7532353365  SOLV      6316            0.0000000000
     19061      6327  TIP3      H1             15.8657796015       -2.9135857466       15.1477053365  SOLV      6316            0.0000000000
     19062      6327  TIP3      H2             15.6630296015       -1.4225257466       15.3134953365  SOLV      6316            0.0000000000
     19063      6328  TIP3      OH2            -1.2646103985        0.5200742534        6.7679453365  SOLV      6317            0.0000000000
     19064      6328  TIP3      H1             -0.8194503985       -0.2716757466        7.0699153365  SOLV      6317            0.0000000000
     19065      6328  TIP3      H2             -0.7983103985        1.2365942534        7.1985053365  SOLV      6317            0.0000000000
     19066      6329  TIP3      OH2            -2.9605803985        3.5193742534        7.8369653365  SOLV      6318            0.0000000000
     19067      6329  TIP3      H1             -2.4686003985        3.2984242534        7.0461653365  SOLV      6318            0.0000000000
     19068      6329  TIP3      H2             -2.5984903985        4.3597142534        8.1179153365  SOLV      6318            0.0000000000
     19069      6330  TIP3      OH2            15.0357996015       -0.1504757466       14.1023653365  SOLV      6319            0.0000000000
     19070      6330  TIP3      H1             14.1183696015        0.1202342534       14.0667153365  SOLV      6319            0.0000000000
     19071      6330  TIP3      H2             15.1587396015       -0.6856357466       13.3183353365  SOLV      6319            0.0000000000
     19072      6331  TIP3      OH2            12.1237896015       14.7614542534        3.8369453365  SOLV      6320            0.0000000000
     19073      6331  TIP3      H1             12.7760796015       14.4136642534        3.2288553365  SOLV      6320            0.0000000000
     19074      6331  TIP3      H2             12.6341696015       15.2497742534        4.4829153365  SOLV      6320            0.0000000000
     19075      6332  TIP3      OH2            -2.6833903985       -1.4848157466       10.2354553365  SOLV      6321            0.0000000000
     19076      6332  TIP3      H1             -3.3483403985       -1.7307857466       10.8785453365  SOLV      6321            0.0000000000
     19077      6332  TIP3      H2             -3.1262603985       -0.8627757466        9.6582553365  SOLV      6321            0.0000000000
     19078      6333  TIP3      OH2            -0.4914603985       11.6905942534       14.3800353365  SOLV      6322            0.0000000000
     19079      6333  TIP3      H1             -1.3122103985       11.8652442534       13.9195053365  SOLV      6322            0.0000000000
     19080      6333  TIP3      H2             -0.7436803985       11.6170642534       15.3004753365  SOLV      6322            0.0000000000
     19081      6334  TIP3      OH2             2.4628296015       12.6647142534       10.6384353365  SOLV      6323            0.0000000000
     19082      6334  TIP3      H1              2.0379396015       13.4745642534       10.3558953365  SOLV      6323            0.0000000000
     19083      6334  TIP3      H2              3.3671096015       12.7501242534       10.3364153365  SOLV      6323            0.0000000000
     19084      6335  TIP3      OH2             6.7739696015       14.0637142534       13.5978053365  SOLV      6324            0.0000000000
     19085      6335  TIP3      H1              6.9587196015       13.7303242534       14.4758353365  SOLV      6324            0.0000000000
     19086      6335  TIP3      H2              7.6204196015       14.3735742534       13.2757253365  SOLV      6324            0.0000000000
     19087      6336  TIP3      OH2             9.1190096015       15.3496042534       12.8419453365  SOLV      6325            0.0000000000
     19088      6336  TIP3      H1              9.7958996015       14.7168342534       12.6018653365  SOLV      6325            0.0000000000
     19089      6336  TIP3      H2              9.4408896015       15.7506542534       13.6492753365  SOLV      6325            0.0000000000
     19090      6337  TIP3      OH2            14.0363896015       -2.0608457466       11.9214453365  SOLV      6326            0.0000000000
     19091      6337  TIP3      H1             13.2237396015       -1.7358157466       11.5339153365  SOLV      6326            0.0000000000
     19092      6337  TIP3      H2             14.2692396015       -2.8209957466       11.3883553365  SOLV      6326            0.0000000000
     19093      6338  TIP3      OH2            -0.1355003985       15.9211042534       10.6859653365  SOLV      6327            0.0000000000
     19094      6338  TIP3      H1             -0.8558603985       16.3612042534       10.2347353365  SOLV      6327            0.0000000000
     19095      6338  TIP3      H2             -0.5011003985       15.6705742534       11.5343653365  SOLV      6327            0.0000000000
     19096      6339  TIP3      OH2             2.3317596015       15.5214942534        9.7156853365  SOLV      6328            0.0000000000
     19097      6339  TIP3      H1              1.4669796015       15.5933442534       10.1196953365  SOLV      6328            0.0000000000
     19098      6339  TIP3      H2              2.2766596015       16.0682242534        8.9319353365  SOLV      6328            0.0000000000
     19099      6340  TIP3      OH2             7.0423196015       15.4093842534        8.8912853365  SOLV      6329            0.0000000000
     19100      6340  TIP3      H1              6.5857196015       15.9383542534        8.2371253365  SOLV      6329            0.0000000000
     19101      6340  TIP3      H2              7.2051196015       16.0125242534        9.6165153365  SOLV      6329            0.0000000000
     19102      6341  TIP3      OH2             9.3699496015       14.2873442534        9.8363153365  SOLV      6330            0.0000000000
     19103      6341  TIP3      H1              8.4653196015       14.4523642534        9.5705253365  SOLV      6330            0.0000000000
     19104      6341  TIP3      H2              9.7988096015       15.1405642534        9.7706553365  SOLV      6330            0.0000000000
     19105      6342  TIP3      OH2            11.9741396015       15.8572542534       10.1310953365  SOLV      6331            0.0000000000
     19106      6342  TIP3      H1             11.7923396015       16.7731442534        9.9205853365  SOLV      6331            0.0000000000
     19107      6342  TIP3      H2             12.1509196015       15.4469642534        9.2845553365  SOLV      6331            0.0000000000
     19108      6343  TIP3      OH2            -0.7206903985       14.5443542534        7.5961453365  SOLV      6332            0.0000000000
     19109      6343  TIP3      H1             -0.7390903985       14.1188642534        8.4533753365  SOLV      6332            0.0000000000
     19110      6343  TIP3      H2              0.0840996015       14.2258542534        7.1873653365  SOLV      6332            0.0000000000
     19111      6344  TIP3      OH2             1.4206196015       13.2542242534        6.2511353365  SOLV      6333            0.0000000000
     19112      6344  TIP3      H1              1.2016896015       12.3379642534        6.4207353365  SOLV      6333            0.0000000000
     19113      6344  TIP3      H2              2.2448396015       13.3942642534        6.7172753365  SOLV      6333            0.0000000000
     19114      6345  TIP3      OH2             3.9578696015       13.7241542534        7.0999353365  SOLV      6334            0.0000000000
     19115      6345  TIP3      H1              4.1704396015       12.8360542534        6.8130253365  SOLV      6334            0.0000000000
     19116      6345  TIP3      H2              4.0223796015       13.6899242534        8.0543353365  SOLV      6334            0.0000000000
     19117      6346  TIP3      OH2             7.4662396015       -0.6117857466        6.2442653365  SOLV      6335            0.0000000000
     19118      6346  TIP3      H1              6.7919196015       -1.2412257466        6.4998453365  SOLV      6335            0.0000000000
     19119      6346  TIP3      H2              8.0301596015       -1.0958957466        5.6410553365  SOLV      6335            0.0000000000
     19120      6347  TIP3      OH2            12.6089596015       -2.5043857466        6.3569753365  SOLV      6336            0.0000000000
     19121      6347  TIP3      H1             13.2127196015       -1.9568457466        5.8550753365  SOLV      6336            0.0000000000
     19122      6347  TIP3      H2             11.7391596015       -2.1853457466        6.1163853365  SOLV      6336            0.0000000000
     19123      6348  TIP3      OH2            14.3359996015       -1.3655157466        4.6900653365  SOLV      6337            0.0000000000
     19124      6348  TIP3      H1             14.9477496015       -1.8799457466        4.1634253365  SOLV      6337            0.0000000000
     19125      6348  TIP3      H2             14.7183396015       -0.4883057466        4.7135053365  SOLV      6337            0.0000000000
     19126      6349  TIP3      OH2            -0.2070103985       -1.9777557466        4.0662553365  SOLV      6338            0.0000000000
     19127      6349  TIP3      H1             -0.9840303985       -2.2122657466        3.5588453365  SOLV      6338            0.0000000000
     19128      6349  TIP3      H2              0.3233496015       -2.7745457466        4.0750553365  SOLV      6338            0.0000000000
     19129      6350  TIP3      OH2             4.3722496015       -2.0510457466        3.8795653365  SOLV      6339            0.0000000000
     19130      6350  TIP3      H1              5.2465896015       -1.6626157466        3.8499953365  SOLV      6339            0.0000000000
     19131      6350  TIP3      H2              4.2363296015       -2.2662657466        4.8022853365  SOLV      6339            0.0000000000
     19132      6351  TIP3      OH2             9.9290896015       -2.0210657466        5.5287353365  SOLV      6340            0.0000000000
     19133      6351  TIP3      H1             10.0052496015       -1.9259057466        4.5793353365  SOLV      6340            0.0000000000
     19134      6351  TIP3      H2              9.6540096015       -2.9287757466        5.6576453365  SOLV      6340            0.0000000000
     19135      6352  TIP3      OH2            -1.4697203985       13.7682742534        0.7673753365  SOLV      6341            0.0000000000
     19136      6352  TIP3      H1             -2.1547303985       13.7301642534        0.0998853365  SOLV      6341            0.0000000000
     19137      6352  TIP3      H2             -1.4660003985       14.6810342534        1.0555853365  SOLV      6341            0.0000000000
     19138      6353  TIP3      OH2             7.3946296015       14.9777642534       -0.8350046635  SOLV      6342            0.0000000000
     19139      6353  TIP3      H1              8.2606496015       15.3445042534       -1.0131846635  SOLV      6342            0.0000000000
     19140      6353  TIP3      H2              7.1479096015       14.5385642534       -1.6489246635  SOLV      6342            0.0000000000
     19141      6354  TIP3      OH2            14.1035896015       14.5407942534        1.8441053365  SOLV      6343            0.0000000000
     19142      6354  TIP3      H1             13.9092996015       13.7930042534        1.2790653365  SOLV      6343            0.0000000000
     19143      6354  TIP3      H2             14.0645996015       15.2988042534        1.2608953365  SOLV      6343            0.0000000000
     19144      6355  TIP3      OH2            -0.2492103985       -1.4635657466       13.5838753365  SOLV      6344            0.0000000000
     19145      6355  TIP3      H1             -0.6153903985       -2.2293057466       14.0263453365  SOLV      6344            0.0000000000
     19146      6355  TIP3      H2              0.6636396015       -1.4345457466       13.8703853365  SOLV      6344            0.0000000000
     19147      6356  TIP3      OH2             1.7238696015       -2.1131257466       15.1195853365  SOLV      6345            0.0000000000
     19148      6356  TIP3      H1              2.6222296015       -2.3871057466       14.9349253365  SOLV      6345            0.0000000000
     19149      6356  TIP3      H2              1.3371796015       -2.8555257466       15.5838453365  SOLV      6345            0.0000000000
     19150      6357  TIP3      OH2             0.3483996015       14.6883542534       -2.2074146635  SOLV      6346            0.0000000000
     19151      6357  TIP3      H1              0.0808596015       14.9746442534       -1.3341046635  SOLV      6346            0.0000000000
     19152      6357  TIP3      H2              1.1196596015       14.1422742534       -2.0551646635  SOLV      6346            0.0000000000
     19153      6358  TIP3      OH2            10.1450996015       -2.7805957466       15.3018653365  SOLV      6347            0.0000000000
     19154      6358  TIP3      H1             10.2218196015       -3.2065257466       16.1556353365  SOLV      6347            0.0000000000
     19155      6358  TIP3      H2             11.0387596015       -2.7671257466       14.9592153365  SOLV      6347            0.0000000000
     19156      6359  TIP3      OH2            13.3212096015       13.2920342534       13.9942853365  SOLV      6348            0.0000000000
     19157      6359  TIP3      H1             12.5393996015       13.1058342534       13.4743453365  SOLV      6348            0.0000000000
     19158      6359  TIP3      H2             13.2491996015       14.2214642534       14.2115353365  SOLV      6348            0.0000000000
     19159      6360  TIP3      OH2            27.7272496015        7.1784742534        4.0250053365  SOLV      6349            0.0000000000
     19160      6360  TIP3      H1             27.8163596015        8.1222942534        3.8927153365  SOLV      6349            0.0000000000
     19161      6360  TIP3      H2             27.0890096015        6.9031142534        3.3669453365  SOLV      6349            0.0000000000
     19162      6361  TIP3      OH2            26.6603796015        6.4335442534        7.4438253365  SOLV      6350            0.0000000000
     19163      6361  TIP3      H1             26.6221296015        5.7871742534        8.1487853365  SOLV      6350            0.0000000000
     19164      6361  TIP3      H2             26.3380296015        5.9669842534        6.6726953365  SOLV      6350            0.0000000000
     19165      6362  TIP3      OH2            19.0288796015        6.0477542534        9.0368153365  SOLV      6351            0.0000000000
     19166      6362  TIP3      H1             19.0700896015        5.4220842534        9.7600553365  SOLV      6351            0.0000000000
     19167      6362  TIP3      H2             19.7316496015        6.6716142534        9.2188553365  SOLV      6351            0.0000000000
     19168      6363  TIP3      OH2            30.3663996015        9.3725842534        5.7453353365  SOLV      6352            0.0000000000
     19169      6363  TIP3      H1             29.9256696015        8.6521842534        6.1958953365  SOLV      6352            0.0000000000
     19170      6363  TIP3      H2             30.3533696015       10.0933042534        6.3751053365  SOLV      6352            0.0000000000
     19171      6364  TIP3      OH2            19.9521896015       10.4976442534        7.5717253365  SOLV      6353            0.0000000000
     19172      6364  TIP3      H1             19.5827096015        9.6956942534        7.2021553365  SOLV      6353            0.0000000000
     19173      6364  TIP3      H2             20.8932996015       10.3291342534        7.6180653365  SOLV      6353            0.0000000000
     19174      6365  TIP3      OH2            16.5622396015        4.1579042534        2.9646053365  SOLV      6354            0.0000000000
     19175      6365  TIP3      H1             16.1145796015        5.0037742534        2.9462553365  SOLV      6354            0.0000000000
     19176      6365  TIP3      H2             16.0013596015        3.5783242534        2.4491153365  SOLV      6354            0.0000000000
     19177      6366  TIP3      OH2            17.2728496015        6.3198642534        5.0904053365  SOLV      6355            0.0000000000
     19178      6366  TIP3      H1             17.4861996015        5.5500242534        5.6177053365  SOLV      6355            0.0000000000
     19179      6366  TIP3      H2             18.0106096015        6.4095342534        4.4871653365  SOLV      6355            0.0000000000
     19180      6367  TIP3      OH2            27.4779496015       14.4767542534        5.9573753365  SOLV      6356            0.0000000000
     19181      6367  TIP3      H1             28.0975896015       13.8002242534        5.6842953365  SOLV      6356            0.0000000000
     19182      6367  TIP3      H2             27.2696896015       14.2588342534        6.8658653365  SOLV      6356            0.0000000000
     19183      6368  TIP3      OH2            25.0498196015        8.8656842534        7.8499253365  SOLV      6357            0.0000000000
     19184      6368  TIP3      H1             25.3536096015        8.1798242534        7.2553353365  SOLV      6357            0.0000000000
     19185      6368  TIP3      H2             25.7712196015        8.9845542534        8.4677253365  SOLV      6357            0.0000000000
     19186      6369  TIP3      OH2            33.7127996015        0.4672142534        8.7105453365  SOLV      6358            0.0000000000
     19187      6369  TIP3      H1             33.7620196015        1.0773342534        9.4464553365  SOLV      6358            0.0000000000
     19188      6369  TIP3      H2             34.1383096015        0.9283042534        7.9876553365  SOLV      6358            0.0000000000
     19189      6370  TIP3      OH2            28.1905196015        3.2599242534        8.1774053365  SOLV      6359            0.0000000000
     19190      6370  TIP3      H1             28.3331096015        2.3136242534        8.1975653365  SOLV      6359            0.0000000000
     19191      6370  TIP3      H2             28.0844196015        3.4669042534        7.2488953365  SOLV      6359            0.0000000000
     19192      6371  TIP3      OH2            21.3453496015        1.3615642534        5.4498853365  SOLV      6360            0.0000000000
     19193      6371  TIP3      H1             21.3884596015        2.2214142534        5.0315153365  SOLV      6360            0.0000000000
     19194      6371  TIP3      H2             20.8877596015        0.8090342534        4.8162053365  SOLV      6360            0.0000000000
     19195      6372  TIP3      OH2            29.0676196015        1.4921242534        3.8507153365  SOLV      6361            0.0000000000
     19196      6372  TIP3      H1             29.7140496015        1.1634442534        4.4754753365  SOLV      6361            0.0000000000
     19197      6372  TIP3      H2             29.5775596015        2.0100242534        3.2278553365  SOLV      6361            0.0000000000
     19198      6373  TIP3      OH2            17.9654996015        3.7581442534        6.2120253365  SOLV      6362            0.0000000000
     19199      6373  TIP3      H1             18.6191596015        3.2083142534        6.6440353365  SOLV      6362            0.0000000000
     19200      6373  TIP3      H2             17.9894296015        3.4840442534        5.2952253365  SOLV      6362            0.0000000000
     19201      6374  TIP3      OH2            23.1219496015        5.3082742534        5.4271753365  SOLV      6363            0.0000000000
     19202      6374  TIP3      H1             23.7380496015        4.7818142534        5.9365753365  SOLV      6363            0.0000000000
     19203      6374  TIP3      H2             22.5358296015        4.6681442534        5.0235353365  SOLV      6363            0.0000000000
     19204      6375  TIP3      OH2            34.1042596015        1.9451342534       10.9465253365  SOLV      6364            0.0000000000
     19205      6375  TIP3      H1             33.4157196015        2.6032042534       10.8511853365  SOLV      6364            0.0000000000
     19206      6375  TIP3      H2             34.1197196015        1.7479242534       11.8830653365  SOLV      6364            0.0000000000
     19207      6376  TIP3      OH2            20.1555396015        0.2794042534        9.5239653365  SOLV      6365            0.0000000000
     19208      6376  TIP3      H1             19.9367096015        0.8094642534        8.7575653365  SOLV      6365            0.0000000000
     19209      6376  TIP3      H2             19.4876296015        0.5059542534       10.1711053365  SOLV      6365            0.0000000000
     19210      6377  TIP3      OH2            27.5245196015        9.7795142534        3.0678753365  SOLV      6366            0.0000000000
     19211      6377  TIP3      H1             27.2290296015        9.4567442534        2.2165653365  SOLV      6366            0.0000000000
     19212      6377  TIP3      H2             27.2002996015       10.6791842534        3.1091353365  SOLV      6366            0.0000000000
     19213      6378  TIP3      OH2            22.7246796015        7.9549742534        9.8113353365  SOLV      6367            0.0000000000
     19214      6378  TIP3      H1             21.9845896015        8.5531242534        9.9148553365  SOLV      6367            0.0000000000
     19215      6378  TIP3      H2             23.4386296015        8.5089342534        9.4956953365  SOLV      6367            0.0000000000
     19216      6379  TIP3      OH2            30.8314596015        0.7830542534        5.8313053365  SOLV      6368            0.0000000000
     19217      6379  TIP3      H1             30.6162596015        0.0173942534        6.3639053365  SOLV      6368            0.0000000000
     19218      6379  TIP3      H2             31.4871996015        1.2555142534        6.3441553365  SOLV      6368            0.0000000000
     19219      6380  TIP3      OH2            19.7492696015        2.1715842534        7.4761853365  SOLV      6369            0.0000000000
     19220      6380  TIP3      H1             20.3628996015        2.8043442534        7.8494253365  SOLV      6369            0.0000000000
     19221      6380  TIP3      H2             20.2613396015        1.6990842534        6.8198753365  SOLV      6369            0.0000000000
     19222      6381  TIP3      OH2            21.1321096015        9.9192742534       10.5984853365  SOLV      6370            0.0000000000
     19223      6381  TIP3      H1             21.1268696015       10.7986242534       10.2204153365  SOLV      6370            0.0000000000
     19224      6381  TIP3      H2             20.2785196015        9.8356842534       11.0234753365  SOLV      6370            0.0000000000
     19225      6382  TIP3      OH2            17.2531996015        9.5900642534        1.3804153365  SOLV      6371            0.0000000000
     19226      6382  TIP3      H1             16.9812896015        9.8191642534        0.4917053365  SOLV      6371            0.0000000000
     19227      6382  TIP3      H2             17.2987696015       10.4279442534        1.8409453365  SOLV      6371            0.0000000000
     19228      6383  TIP3      OH2            30.8781696015       11.2116542534        8.0932653365  SOLV      6372            0.0000000000
     19229      6383  TIP3      H1             29.9365396015       11.2700442534        8.2549553365  SOLV      6372            0.0000000000
     19230      6383  TIP3      H2             31.1547796015       12.1177042534        7.9562353365  SOLV      6372            0.0000000000
     19231      6384  TIP3      OH2            31.1788696015       -0.5018157466        9.5106553365  SOLV      6373            0.0000000000
     19232      6384  TIP3      H1             30.4427896015        0.1088942534        9.4727853365  SOLV      6373            0.0000000000
     19233      6384  TIP3      H2             31.8622696015       -0.0869157466        8.9842953365  SOLV      6373            0.0000000000
     19234      6385  TIP3      OH2            24.1820096015       -2.4150857466        6.9764553365  SOLV      6374            0.0000000000
     19235      6385  TIP3      H1             24.0644296015       -3.3634857466        6.9222853365  SOLV      6374            0.0000000000
     19236      6385  TIP3      H2             23.3270196015       -2.0824757466        7.2495653365  SOLV      6374            0.0000000000
     19237      6386  TIP3      OH2            29.1302896015       12.9930042534        4.7184253365  SOLV      6375            0.0000000000
     19238      6386  TIP3      H1             29.5555196015       12.2857942534        4.2333853365  SOLV      6375            0.0000000000
     19239      6386  TIP3      H2             29.4472896015       13.7942742534        4.3016453365  SOLV      6375            0.0000000000
     19240      6387  TIP3      OH2            30.2899396015       10.8938542534        3.2270853365  SOLV      6376            0.0000000000
     19241      6387  TIP3      H1             30.0324196015       10.2038642534        2.6156753365  SOLV      6376            0.0000000000
     19242      6387  TIP3      H2             30.3610196015       10.4509742534        4.0726753365  SOLV      6376            0.0000000000
     19243      6388  TIP3      OH2            31.9759596015        9.4605242534       11.7044353365  SOLV      6377            0.0000000000
     19244      6388  TIP3      H1             32.1155896015        8.8687742534       10.9651353365  SOLV      6377            0.0000000000
     19245      6388  TIP3      H2             32.1432396015       10.3331142534       11.3483153365  SOLV      6377            0.0000000000
     19246      6389  TIP3      OH2            26.4484996015        6.4224742534        1.4770353365  SOLV      6378            0.0000000000
     19247      6389  TIP3      H1             25.7370496015        6.9574442534        1.1250853365  SOLV      6378            0.0000000000
     19248      6389  TIP3      H2             27.1394596015        6.4776842534        0.8169253365  SOLV      6378            0.0000000000
     19249      6390  TIP3      OH2            26.5024196015        4.8799042534       -1.4844646635  SOLV      6379            0.0000000000
     19250      6390  TIP3      H1             27.2034096015        4.9025942534       -0.8330646635  SOLV      6379            0.0000000000
     19251      6390  TIP3      H2             26.8047096015        4.2518742534       -2.1405346635  SOLV      6379            0.0000000000
     19252      6391  TIP3      OH2            33.8178896015        5.8003242534        9.7704753365  SOLV      6380            0.0000000000
     19253      6391  TIP3      H1             33.1652996015        6.4948842534        9.8595653365  SOLV      6380            0.0000000000
     19254      6391  TIP3      H2             34.2829196015        6.0104142534        8.9606353365  SOLV      6380            0.0000000000
     19255      6392  TIP3      OH2            29.8542696015        6.6318042534        2.4286253365  SOLV      6381            0.0000000000
     19256      6392  TIP3      H1             29.1223696015        6.8601742534        3.0016853365  SOLV      6381            0.0000000000
     19257      6392  TIP3      H2             30.3014896015        5.9180742534        2.8833753365  SOLV      6381            0.0000000000
     19258      6393  TIP3      OH2            29.7516196015        4.8060642534       11.4963253365  SOLV      6382            0.0000000000
     19259      6393  TIP3      H1             29.8315296015        5.5695042534       12.0681753365  SOLV      6382            0.0000000000
     19260      6393  TIP3      H2             29.1503896015        5.0853042534       10.8058353365  SOLV      6382            0.0000000000
     19261      6394  TIP3      OH2            21.4996396015        7.2624242534        4.3111253365  SOLV      6383            0.0000000000
     19262      6394  TIP3      H1             21.1691596015        6.8917642534        3.4928253365  SOLV      6383            0.0000000000
     19263      6394  TIP3      H2             22.0880496015        6.5918242534        4.6579553365  SOLV      6383            0.0000000000
     19264      6395  TIP3      OH2            22.8663896015       10.6904842534        6.9923453365  SOLV      6384            0.0000000000
     19265      6395  TIP3      H1             22.7715196015       10.1117942534        6.2358053365  SOLV      6384            0.0000000000
     19266      6395  TIP3      H2             23.5957496015       10.3190542534        7.4886253365  SOLV      6384            0.0000000000
     19267      6396  TIP3      OH2            21.8661896015        6.0309842534        7.9446253365  SOLV      6385            0.0000000000
     19268      6396  TIP3      H1             22.4314396015        6.1524042534        7.1817453365  SOLV      6385            0.0000000000
     19269      6396  TIP3      H2             22.1850796015        6.6684842534        8.5834753365  SOLV      6385            0.0000000000
     19270      6397  TIP3      OH2            28.1754096015       11.5341742534        8.6786753365  SOLV      6386            0.0000000000
     19271      6397  TIP3      H1             27.9350696015       12.1964842534        9.3265953365  SOLV      6386            0.0000000000
     19272      6397  TIP3      H2             27.9772296015       10.6996942534        9.1036353365  SOLV      6386            0.0000000000
     19273      6398  TIP3      OH2            22.7462596015       10.4302542534       12.6618153365  SOLV      6387            0.0000000000
     19274      6398  TIP3      H1             22.4350096015       11.2125742534       13.1171353365  SOLV      6387            0.0000000000
     19275      6398  TIP3      H2             22.0962796015       10.2771642534       11.9760153365  SOLV      6387            0.0000000000
     19276      6399  TIP3      OH2            28.7252196015        5.7940942534        0.1137453365  SOLV      6388            0.0000000000
     19277      6399  TIP3      H1             29.3047696015        5.9441242534        0.8606353365  SOLV      6388            0.0000000000
     19278      6399  TIP3      H2             29.1392196015        6.2648342534       -0.6096146635  SOLV      6388            0.0000000000
     19279      6400  TIP3      OH2            19.6662496015        6.6283642534       11.8903853365  SOLV      6389            0.0000000000
     19280      6400  TIP3      H1             19.7365696015        7.2790442534       12.5888853365  SOLV      6389            0.0000000000
     19281      6400  TIP3      H2             18.7754696015        6.7311142534       11.5554753365  SOLV      6389            0.0000000000
     19282      6401  TIP3      OH2            26.4517096015       12.5309442534        3.5490553365  SOLV      6390            0.0000000000
     19283      6401  TIP3      H1             26.9254696015       12.8265742534        4.3264753365  SOLV      6390            0.0000000000
     19284      6401  TIP3      H2             25.8886396015       13.2691042534        3.3160153365  SOLV      6390            0.0000000000
     19285      6402  TIP3      OH2            20.9858496015       12.5017542534       13.4251953365  SOLV      6391            0.0000000000
     19286      6402  TIP3      H1             20.9933796015       12.3657242534       12.4777453365  SOLV      6391            0.0000000000
     19287      6402  TIP3      H2             20.0698896015       12.3845642534       13.6771953365  SOLV      6391            0.0000000000
     19288      6403  TIP3      OH2            32.4240596015       -2.4558657466       -0.0732846635  SOLV      6392            0.0000000000
     19289      6403  TIP3      H1             31.5241296015       -2.3169657466        0.2217753365  SOLV      6392            0.0000000000
     19290      6403  TIP3      H2             32.6758996015       -1.6244057466       -0.4751146635  SOLV      6392            0.0000000000
     19291      6404  TIP3      OH2            20.4899096015        6.3318542534        1.9004053365  SOLV      6393            0.0000000000
     19292      6404  TIP3      H1             20.1980396015        7.1000242534        1.4095353365  SOLV      6393            0.0000000000
     19293      6404  TIP3      H2             19.8154296015        5.6724742534        1.7375453365  SOLV      6393            0.0000000000
     19294      6405  TIP3      OH2            33.6131996015       11.9103742534       -1.6968946635  SOLV      6394            0.0000000000
     19295      6405  TIP3      H1             33.6865496015       12.8493942534       -1.5263646635  SOLV      6394            0.0000000000
     19296      6405  TIP3      H2             34.5187096015       11.6052342534       -1.7531646635  SOLV      6394            0.0000000000
     19297      6406  TIP3      OH2            16.5829196015        8.6947742534       10.7153853365  SOLV      6395            0.0000000000
     19298      6406  TIP3      H1             16.0817596015        8.6667142534        9.9003553365  SOLV      6395            0.0000000000
     19299      6406  TIP3      H2             16.5882896015        7.7890942534       11.0251153365  SOLV      6395            0.0000000000
     19300      6407  TIP3      OH2            16.3331896015       11.4751542534        7.5994053365  SOLV      6396            0.0000000000
     19301      6407  TIP3      H1             17.2792496015       11.3308542534        7.5803553365  SOLV      6396            0.0000000000
     19302      6407  TIP3      H2             16.2208196015       12.2594342534        8.1365253365  SOLV      6396            0.0000000000
     19303      6408  TIP3      OH2            34.5310396015       12.1411242534       13.2817753365  SOLV      6397            0.0000000000
     19304      6408  TIP3      H1             34.4817196015       11.1859342534       13.2445353365  SOLV      6397            0.0000000000
     19305      6408  TIP3      H2             33.7042696015       12.4086542534       13.6831553365  SOLV      6397            0.0000000000
     19306      6409  TIP3      OH2            25.5094396015       11.7150442534       12.1579153365  SOLV      6398            0.0000000000
     19307      6409  TIP3      H1             25.5968996015       12.5415042534       12.6328253365  SOLV      6398            0.0000000000
     19308      6409  TIP3      H2             24.6459496015       11.3854242534       12.4068453365  SOLV      6398            0.0000000000
     19309      6410  TIP3      OH2            25.9240196015       15.4874142534        1.9639753365  SOLV      6399            0.0000000000
     19310      6410  TIP3      H1             25.8486196015       15.3661342534        1.0174953365  SOLV      6399            0.0000000000
     19311      6410  TIP3      H2             25.9568896015       16.4366842534        2.0824353365  SOLV      6399            0.0000000000
     19312      6411  TIP3      OH2            19.5773996015       14.2761142534        3.7448753365  SOLV      6400            0.0000000000
     19313      6411  TIP3      H1             19.7294396015       13.9281542534        4.6235253365  SOLV      6400            0.0000000000
     19314      6411  TIP3      H2             18.7264396015       13.9198442534        3.4895953365  SOLV      6400            0.0000000000
     19315      6412  TIP3      OH2            29.0256196015       14.6414342534       -1.0337846635  SOLV      6401            0.0000000000
     19316      6412  TIP3      H1             29.4004596015       13.8970442534       -1.5045246635  SOLV      6401            0.0000000000
     19317      6412  TIP3      H2             29.0299896015       14.3714942534       -0.1154546635  SOLV      6401            0.0000000000
     19318      6413  TIP3      OH2            28.6944296015       14.5671442534        1.7154353365  SOLV      6402            0.0000000000
     19319      6413  TIP3      H1             27.7594096015       14.6673342534        1.8941353365  SOLV      6402            0.0000000000
     19320      6413  TIP3      H2             28.9746196015       13.8577442534        2.2937553365  SOLV      6402            0.0000000000
     19321      6414  TIP3      OH2            31.6830196015        3.6343742534       13.7619953365  SOLV      6403            0.0000000000
     19322      6414  TIP3      H1             31.2756996015        4.1149342534       13.0413253365  SOLV      6403            0.0000000000
     19323      6414  TIP3      H2             31.7235896015        2.7289742534       13.4540753365  SOLV      6403            0.0000000000
     19324      6415  TIP3      OH2            18.8319696015       10.0183142534       11.7586653365  SOLV      6404            0.0000000000
     19325      6415  TIP3      H1             19.0480996015        9.6568742534       12.6182453365  SOLV      6404            0.0000000000
     19326      6415  TIP3      H2             17.9764396015        9.6436942534       11.5490153365  SOLV      6404            0.0000000000
     19327      6416  TIP3      OH2            21.4507696015       -1.5116357466        7.7540853365  SOLV      6405            0.0000000000
     19328      6416  TIP3      H1             20.5891396015       -1.5988157466        7.3463753365  SOLV      6405            0.0000000000
     19329      6416  TIP3      H2             21.4283396015       -0.6556257466        8.1818453365  SOLV      6405            0.0000000000
     19330      6417  TIP3      OH2            26.1135496015       -1.7895957466       11.1287853365  SOLV      6406            0.0000000000
     19331      6417  TIP3      H1             26.5338596015       -2.2048857466       11.8818453365  SOLV      6406            0.0000000000
     19332      6417  TIP3      H2             25.1805096015       -1.9682657466       11.2459853365  SOLV      6406            0.0000000000
     19333      6418  TIP3      OH2            29.4400396015        1.9659242534       11.9822353365  SOLV      6407            0.0000000000
     19334      6418  TIP3      H1             28.9259896015        1.8401442534       12.7798353365  SOLV      6407            0.0000000000
     19335      6418  TIP3      H2             29.2845096015        2.8782342534       11.7378553365  SOLV      6407            0.0000000000
     19336      6419  TIP3      OH2            30.2025296015        6.8269242534       -2.2564646635  SOLV      6408            0.0000000000
     19337      6419  TIP3      H1             30.2446096015        6.6043142534       -3.1864646635  SOLV      6408            0.0000000000
     19338      6419  TIP3      H2             31.0517396015        7.2256342534       -2.0664746635  SOLV      6408            0.0000000000
     19339      6420  TIP3      OH2            25.7752796015        0.7027442534       -1.5861346635  SOLV      6409            0.0000000000
     19340      6420  TIP3      H1             25.5217596015        0.7219042534       -0.6633246635  SOLV      6409            0.0000000000
     19341      6420  TIP3      H2             25.5184896015       -0.1687157466       -1.8875146635  SOLV      6409            0.0000000000
     19342      6421  TIP3      OH2            21.5417796015        3.4538142534        8.8491053365  SOLV      6410            0.0000000000
     19343      6421  TIP3      H1             20.8999896015        3.4135442534        9.5581153365  SOLV      6410            0.0000000000
     19344      6421  TIP3      H2             21.5789796015        4.3802842534        8.6114053365  SOLV      6410            0.0000000000
     19345      6422  TIP3      OH2            21.5386896015        3.6748242534        3.7611053365  SOLV      6411            0.0000000000
     19346      6422  TIP3      H1             20.6459796015        3.3344342534        3.7024853365  SOLV      6411            0.0000000000
     19347      6422  TIP3      H2             21.9893496015        3.2979142534        3.0054253365  SOLV      6411            0.0000000000
     19348      6423  TIP3      OH2            27.0742396015        4.0908542534        2.5781853365  SOLV      6412            0.0000000000
     19349      6423  TIP3      H1             26.6652696015        4.9057142534        2.2866653365  SOLV      6412            0.0000000000
     19350      6423  TIP3      H2             27.7948596015        3.9508642534        1.9638953365  SOLV      6412            0.0000000000
     19351      6424  TIP3      OH2            26.1763996015        4.2664942534       14.0662553365  SOLV      6413            0.0000000000
     19352      6424  TIP3      H1             25.6137796015        3.5616542534       14.3870353365  SOLV      6413            0.0000000000
     19353      6424  TIP3      H2             27.0027396015        4.1456842534       14.5340153365  SOLV      6413            0.0000000000
     19354      6425  TIP3      OH2            28.0790096015        3.5368942534        5.3921553365  SOLV      6414            0.0000000000
     19355      6425  TIP3      H1             27.8834596015        4.1425742534        4.6772153365  SOLV      6414            0.0000000000
     19356      6425  TIP3      H2             28.2602696015        2.7034142534        4.9577853365  SOLV      6414            0.0000000000
     19357      6426  TIP3      OH2            19.2918296015        3.7741642534       10.7163053365  SOLV      6415            0.0000000000
     19358      6426  TIP3      H1             19.2537696015        4.1743242534       11.5850153365  SOLV      6415            0.0000000000
     19359      6426  TIP3      H2             18.8009396015        2.9574042534       10.8065953365  SOLV      6415            0.0000000000
     19360      6427  TIP3      OH2            22.6575696015        1.1483942534       -2.4850946635  SOLV      6416            0.0000000000
     19361      6427  TIP3      H1             22.2266396015        0.7034042534       -1.7553546635  SOLV      6416            0.0000000000
     19362      6427  TIP3      H2             21.9394396015        1.5200242534       -2.9973446635  SOLV      6416            0.0000000000
     19363      6428  TIP3      OH2            15.8999096015        0.8903442534        4.5667753365  SOLV      6417            0.0000000000
     19364      6428  TIP3      H1             16.5306796015        0.8615542534        5.2861653365  SOLV      6417            0.0000000000
     19365      6428  TIP3      H2             16.3493396015        0.4652142534        3.8363653365  SOLV      6417            0.0000000000
     19366      6429  TIP3      OH2            27.3429296015        5.1750242534       10.0633953365  SOLV      6418            0.0000000000
     19367      6429  TIP3      H1             27.6664096015        4.5439942534        9.4204453365  SOLV      6418            0.0000000000
     19368      6429  TIP3      H2             26.9028596015        4.6402442534       10.7241353365  SOLV      6418            0.0000000000
     19369      6430  TIP3      OH2            24.1202196015        1.1025742534        4.8475153365  SOLV      6419            0.0000000000
     19370      6430  TIP3      H1             23.2093296015        1.1592542534        5.1361153365  SOLV      6419            0.0000000000
     19371      6430  TIP3      H2             24.6255096015        1.0421242534        5.6582353365  SOLV      6419            0.0000000000
     19372      6431  TIP3      OH2            18.9485596015        2.7312042534        3.6742753365  SOLV      6420            0.0000000000
     19373      6431  TIP3      H1             18.0593596015        2.8307542534        3.3342353365  SOLV      6420            0.0000000000
     19374      6431  TIP3      H2             19.2450496015        1.8895042534        3.3280653365  SOLV      6420            0.0000000000
     19375      6432  TIP3      OH2            22.6017396015        2.7314642534        1.3307353365  SOLV      6421            0.0000000000
     19376      6432  TIP3      H1             23.5332896015        2.8604642534        1.5090453365  SOLV      6421            0.0000000000
     19377      6432  TIP3      H2             22.3867696015        3.4008942534        0.6812053365  SOLV      6421            0.0000000000
     19378      6433  TIP3      OH2            28.5254096015        0.3372042534        8.1116953365  SOLV      6422            0.0000000000
     19379      6433  TIP3      H1             27.8485696015        0.4685142534        8.7756653365  SOLV      6422            0.0000000000
     19380      6433  TIP3      H2             28.0398996015        0.1821542534        7.3014653365  SOLV      6422            0.0000000000
     19381      6434  TIP3      OH2            21.2757596015        3.9256842534       -1.1026546635  SOLV      6423            0.0000000000
     19382      6434  TIP3      H1             20.7332696015        3.5460642534       -1.7938946635  SOLV      6423            0.0000000000
     19383      6434  TIP3      H2             22.1092496015        4.1201542534       -1.5312446635  SOLV      6423            0.0000000000
     19384      6435  TIP3      OH2            31.8129196015       16.0087442534       14.3884553365  SOLV      6424            0.0000000000
     19385      6435  TIP3      H1             32.0127896015       16.4329342534       13.5539853365  SOLV      6424            0.0000000000
     19386      6435  TIP3      H2             32.4682896015       16.3525642534       14.9954953365  SOLV      6424            0.0000000000
     19387      6436  TIP3      OH2            19.4108996015        8.4828742534       13.9965053365  SOLV      6425            0.0000000000
     19388      6436  TIP3      H1             20.1431396015        8.7374642534       14.5579553365  SOLV      6425            0.0000000000
     19389      6436  TIP3      H2             18.6307696015        8.6874142534       14.5120453365  SOLV      6425            0.0000000000
     19390      6437  TIP3      OH2            25.4401896015        3.8898742534        6.7344753365  SOLV      6426            0.0000000000
     19391      6437  TIP3      H1             26.0045296015        3.3435342534        6.1874353365  SOLV      6426            0.0000000000
     19392      6437  TIP3      H2             25.2925296015        3.3680642534        7.5232353365  SOLV      6426            0.0000000000
     19393      6438  TIP3      OH2            20.4421596015        0.0264842534        3.1529553365  SOLV      6427            0.0000000000
     19394      6438  TIP3      H1             20.1251096015       -0.8759857466        3.1174953365  SOLV      6427            0.0000000000
     19395      6438  TIP3      H2             21.2235696015        0.0282242534        2.6001153365  SOLV      6427            0.0000000000
     19396      6439  TIP3      OH2            24.0667796015        2.2784842534        9.1485153365  SOLV      6428            0.0000000000
     19397      6439  TIP3      H1             23.2313096015        2.7324342534        9.2587553365  SOLV      6428            0.0000000000
     19398      6439  TIP3      H2             24.5908396015        2.5543342534        9.9005053365  SOLV      6428            0.0000000000
     19399      6440  TIP3      OH2            24.6110396015        8.4912542534        0.8331553365  SOLV      6429            0.0000000000
     19400      6440  TIP3      H1             23.8661396015        7.9837842534        0.5109453365  SOLV      6429            0.0000000000
     19401      6440  TIP3      H2             24.4767596015        8.5400542534        1.7796353365  SOLV      6429            0.0000000000
     19402      6441  TIP3      OH2            31.7609296015        7.6240742534        9.6199153365  SOLV      6430            0.0000000000
     19403      6441  TIP3      H1             32.4028096015        8.0807042534        9.0761353365  SOLV      6430            0.0000000000
     19404      6441  TIP3      H2             30.9306196015        7.7373142534        9.1573253365  SOLV      6430            0.0000000000
     19405      6442  TIP3      OH2            28.5087196015        1.3052442534       -0.9675846635  SOLV      6431            0.0000000000
     19406      6442  TIP3      H1             27.5701396015        1.4168042534       -1.1187046635  SOLV      6431            0.0000000000
     19407      6442  TIP3      H2             28.8059296015        2.1619342534       -0.6610146635  SOLV      6431            0.0000000000
     19408      6443  TIP3      OH2            26.1302496015        8.6755842534       12.0700653365  SOLV      6432            0.0000000000
     19409      6443  TIP3      H1             25.7848596015        8.2938242534       12.8770253365  SOLV      6432            0.0000000000
     19410      6443  TIP3      H2             25.9302596015        9.6089442534       12.1413553365  SOLV      6432            0.0000000000
     19411      6444  TIP3      OH2            29.2270696015        3.1725142534        0.6931553365  SOLV      6433            0.0000000000
     19412      6444  TIP3      H1             30.1189696015        3.0350142534        1.0122753365  SOLV      6433            0.0000000000
     19413      6444  TIP3      H2             29.2834296015        3.9631242534        0.1565053365  SOLV      6433            0.0000000000
     19414      6445  TIP3      OH2            19.7358696015        7.7862542534        6.6029453365  SOLV      6434            0.0000000000
     19415      6445  TIP3      H1             20.4805896015        7.7838242534        6.0015953365  SOLV      6434            0.0000000000
     19416      6445  TIP3      H2             19.8135296015        6.9626342534        7.0844553365  SOLV      6434            0.0000000000
     19417      6446  TIP3      OH2            26.7364496015        9.9496842534       -0.1413846635  SOLV      6435            0.0000000000
     19418      6446  TIP3      H1             26.4412896015       10.7764742534        0.2400953365  SOLV      6435            0.0000000000
     19419      6446  TIP3      H2             26.0334496015        9.3303742534        0.0547553365  SOLV      6435            0.0000000000
     19420      6447  TIP3      OH2            16.7438396015        6.2469442534       11.9177953365  SOLV      6436            0.0000000000
     19421      6447  TIP3      H1             16.9666996015        5.8289042534       12.7495453365  SOLV      6436            0.0000000000
     19422      6447  TIP3      H2             16.1418496015        5.6344442534       11.4950753365  SOLV      6436            0.0000000000
     19423      6448  TIP3      OH2            23.7603296015        5.7639342534       14.1307653365  SOLV      6437            0.0000000000
     19424      6448  TIP3      H1             23.4644096015        5.5982342534       13.2356753365  SOLV      6437            0.0000000000
     19425      6448  TIP3      H2             24.6918496015        5.5439642534       14.1201553365  SOLV      6437            0.0000000000
     19426      6449  TIP3      OH2            28.3806096015       11.1371342534       12.0205653365  SOLV      6438            0.0000000000
     19427      6449  TIP3      H1             27.4800396015       11.3203942534       11.7529553365  SOLV      6438            0.0000000000
     19428      6449  TIP3      H2             28.4147196015       11.3960642534       12.9414453365  SOLV      6438            0.0000000000
     19429      6450  TIP3      OH2            34.1119396015        3.3819242534        0.3878253365  SOLV      6439            0.0000000000
     19430      6450  TIP3      H1             33.5575696015        2.9857242534       -0.2844246635  SOLV      6439            0.0000000000
     19431      6450  TIP3      H2             34.2122996015        4.2924442534        0.1101553365  SOLV      6439            0.0000000000
     19432      6451  TIP3      OH2            34.0751396015        9.1820942534       13.2249753365  SOLV      6440            0.0000000000
     19433      6451  TIP3      H1             33.2239896015        9.4204742534       12.8576153365  SOLV      6440            0.0000000000
     19434      6451  TIP3      H2             34.6654796015        9.1654142534       12.4716853365  SOLV      6440            0.0000000000
     19435      6452  TIP3      OH2            32.4071096015       12.1679642534        0.8530353365  SOLV      6441            0.0000000000
     19436      6452  TIP3      H1             32.0342196015       11.3423442534        1.1620953365  SOLV      6441            0.0000000000
     19437      6452  TIP3      H2             32.6844596015       11.9849042534       -0.0446246635  SOLV      6441            0.0000000000
     19438      6453  TIP3      OH2            29.5674996015        6.9759142534        7.8742253365  SOLV      6442            0.0000000000
     19439      6453  TIP3      H1             28.6391896015        6.7441042534        7.8471553365  SOLV      6442            0.0000000000
     19440      6453  TIP3      H2             30.0186096015        6.1988942534        7.5441053365  SOLV      6442            0.0000000000
     19441      6454  TIP3      OH2            22.1108096015       11.3040742534        4.0070953365  SOLV      6443            0.0000000000
     19442      6454  TIP3      H1             22.6380296015       12.0775142534        3.8069753365  SOLV      6443            0.0000000000
     19443      6454  TIP3      H2             21.2306596015       11.5289942534        3.7054953365  SOLV      6443            0.0000000000
     19444      6455  TIP3      OH2            17.8655796015        6.1664842534       -1.4056646635  SOLV      6444            0.0000000000
     19445      6455  TIP3      H1             18.4815696015        6.7932042534       -1.0261846635  SOLV      6444            0.0000000000
     19446      6455  TIP3      H2             17.0038396015        6.4824642534       -1.1340146635  SOLV      6444            0.0000000000
     19447      6456  TIP3      OH2            23.5380396015        8.9670642534        3.5835253365  SOLV      6445            0.0000000000
     19448      6456  TIP3      H1             23.2970396015        9.8925042534        3.6250553365  SOLV      6445            0.0000000000
     19449      6456  TIP3      H2             22.7973996015        8.5081942534        3.9799153365  SOLV      6445            0.0000000000
     19450      6457  TIP3      OH2            24.0526996015       13.1164242534        9.8986353365  SOLV      6446            0.0000000000
     19451      6457  TIP3      H1             24.4151696015       13.9709842534        9.6650753365  SOLV      6446            0.0000000000
     19452      6457  TIP3      H2             24.5842196015       12.8245842534       10.6392653365  SOLV      6446            0.0000000000
     19453      6458  TIP3      OH2            22.2211196015       13.9888242534        3.1287453365  SOLV      6447            0.0000000000
     19454      6458  TIP3      H1             21.2711696015       14.0945642534        3.1800753365  SOLV      6447            0.0000000000
     19455      6458  TIP3      H2             22.5729296015       14.8095642534        3.4734953365  SOLV      6447            0.0000000000
     19456      6459  TIP3      OH2            27.5967796015        9.2154942534        9.5991953365  SOLV      6448            0.0000000000
     19457      6459  TIP3      H1             27.1709096015        8.9876642534       10.4255953365  SOLV      6448            0.0000000000
     19458      6459  TIP3      H2             28.1773596015        8.4766742534        9.4167253365  SOLV      6448            0.0000000000
     19459      6460  TIP3      OH2            29.7996696015       10.1445442534       -1.3269046635  SOLV      6449            0.0000000000
     19460      6460  TIP3      H1             30.1529796015        9.7645242534       -0.5225546635  SOLV      6449            0.0000000000
     19461      6460  TIP3      H2             28.8510196015       10.0510242534       -1.2399746635  SOLV      6449            0.0000000000
     19462      6461  TIP3      OH2            30.2551996015       13.7674442534       12.0686753365  SOLV      6450            0.0000000000
     19463      6461  TIP3      H1             29.6535196015       13.2117342534       11.5733053365  SOLV      6450            0.0000000000
     19464      6461  TIP3      H2             30.5365696015       14.4344242534       11.4424153365  SOLV      6450            0.0000000000
     19465      6462  TIP3      OH2            34.3031096015       14.6237942534       -1.1258846635  SOLV      6451            0.0000000000
     19466      6462  TIP3      H1             35.0468996015       15.2098442534       -1.2657246635  SOLV      6451            0.0000000000
     19467      6462  TIP3      H2             33.6089196015       15.1923742534       -0.7926446635  SOLV      6451            0.0000000000
     19468      6463  TIP3      OH2            18.3777896015        1.0002142534       11.4759353365  SOLV      6452            0.0000000000
     19469      6463  TIP3      H1             17.4850196015        1.3387542534       11.4083353365  SOLV      6452            0.0000000000
     19470      6463  TIP3      H2             18.2790696015        0.1448242534       11.8940153365  SOLV      6452            0.0000000000
     19471      6464  TIP3      OH2            30.6655996015        8.8167442534        0.8998853365  SOLV      6453            0.0000000000
     19472      6464  TIP3      H1             30.3883596015        8.0886742534        1.4559953365  SOLV      6453            0.0000000000
     19473      6464  TIP3      H2             31.5928996015        8.9359442534        1.1051453365  SOLV      6453            0.0000000000
     19474      6465  TIP3      OH2            18.0289896015       12.8046542534        9.9108753365  SOLV      6454            0.0000000000
     19475      6465  TIP3      H1             18.2460196015       11.8728942534        9.8798453365  SOLV      6454            0.0000000000
     19476      6465  TIP3      H2             18.2753396015       13.0791542534       10.7941553365  SOLV      6454            0.0000000000
     19477      6466  TIP3      OH2            23.8904496015       11.2561542534       -2.8799046635  SOLV      6455            0.0000000000
     19478      6466  TIP3      H1             24.1294296015       10.5079642534       -3.4270146635  SOLV      6455            0.0000000000
     19479      6466  TIP3      H2             23.6215796015       10.8683242534       -2.0471246635  SOLV      6455            0.0000000000
     19480      6467  TIP3      OH2            22.8275096015       10.8265342534       -0.4236446635  SOLV      6456            0.0000000000
     19481      6467  TIP3      H1             22.9743096015       10.3065142534        0.3664453365  SOLV      6456            0.0000000000
     19482      6467  TIP3      H2             22.8246796015       11.7332942534       -0.1170546635  SOLV      6456            0.0000000000
     19483      6468  TIP3      OH2            19.2806196015        8.0788642534        0.0868953365  SOLV      6457            0.0000000000
     19484      6468  TIP3      H1             18.5945496015        8.4311142534        0.6538653365  SOLV      6457            0.0000000000
     19485      6468  TIP3      H2             19.8034096015        8.8418242534       -0.1596746635  SOLV      6457            0.0000000000
     19486      6469  TIP3      OH2            27.1121296015        0.7412442534       10.3657953365  SOLV      6458            0.0000000000
     19487      6469  TIP3      H1             27.8109196015        0.8151142534       11.0157653365  SOLV      6458            0.0000000000
     19488      6469  TIP3      H2             26.7312696015       -0.1232557466       10.5200853365  SOLV      6458            0.0000000000
     19489      6470  TIP3      OH2            27.8966196015        0.3934142534        1.4630253365  SOLV      6459            0.0000000000
     19490      6470  TIP3      H1             28.1164496015        0.8649542534        0.6595653365  SOLV      6459            0.0000000000
     19491      6470  TIP3      H2             28.4550196015        0.7876742534        2.1330853365  SOLV      6459            0.0000000000
     19492      6471  TIP3      OH2            25.5652296015       12.5238942534        0.3257753365  SOLV      6460            0.0000000000
     19493      6471  TIP3      H1             24.7488396015       13.0208642534        0.3782053365  SOLV      6460            0.0000000000
     19494      6471  TIP3      H2             26.0948596015       12.9992442534       -0.3143446635  SOLV      6460            0.0000000000
     19495      6472  TIP3      OH2            25.0966096015        2.1212942534        2.2978653365  SOLV      6461            0.0000000000
     19496      6472  TIP3      H1             25.9088696015        2.6256142534        2.3440353365  SOLV      6461            0.0000000000
     19497      6472  TIP3      H2             24.8519096015        1.9762642534        3.2118253365  SOLV      6461            0.0000000000
     19498      6473  TIP3      OH2            25.6322496015        3.1075642534       11.4825253365  SOLV      6462            0.0000000000
     19499      6473  TIP3      H1             25.7512796015        3.6811042534       12.2395653365  SOLV      6462            0.0000000000
     19500      6473  TIP3      H2             26.2877096015        2.4195042534       11.5973053365  SOLV      6462            0.0000000000
     19501      6474  TIP3      OH2            25.9802796015       -0.7974057466        3.2359753365  SOLV      6463            0.0000000000
     19502      6474  TIP3      H1             25.6336296015       -0.1803457466        3.8804053365  SOLV      6463            0.0000000000
     19503      6474  TIP3      H2             26.6389696015       -0.2968357466        2.7545253365  SOLV      6463            0.0000000000
     19504      6475  TIP3      OH2            22.9035396015       13.5676142534        0.3074653365  SOLV      6464            0.0000000000
     19505      6475  TIP3      H1             23.0644096015       14.3673642534       -0.1932746635  SOLV      6464            0.0000000000
     19506      6475  TIP3      H2             22.7063196015       13.8742142534        1.1925253365  SOLV      6464            0.0000000000
     19507      6476  TIP3      OH2            21.6379796015        0.2655342534       -0.0767746635  SOLV      6465            0.0000000000
     19508      6476  TIP3      H1             21.5544596015        1.1538442534        0.2698653365  SOLV      6465            0.0000000000
     19509      6476  TIP3      H2             22.5280096015        0.0002042534        0.1549053365  SOLV      6465            0.0000000000
     19510      6477  TIP3      OH2            31.8368296015        1.0145942534       12.3174953365  SOLV      6466            0.0000000000
     19511      6477  TIP3      H1             30.9204096015        1.2767642534       12.2298653365  SOLV      6466            0.0000000000
     19512      6477  TIP3      H2             32.1723296015        1.0114942534       11.4210253365  SOLV      6466            0.0000000000
     19513      6478  TIP3      OH2            30.4389296015        4.7646942534        6.4132253365  SOLV      6467            0.0000000000
     19514      6478  TIP3      H1             29.6413696015        4.3497142534        6.0847253365  SOLV      6467            0.0000000000
     19515      6478  TIP3      H2             30.8840396015        4.0740642534        6.9042753365  SOLV      6467            0.0000000000
     19516      6479  TIP3      OH2            19.8965096015       10.6927542534       -1.0163246635  SOLV      6468            0.0000000000
     19517      6479  TIP3      H1             20.4886596015       11.3922342534       -0.7400846635  SOLV      6468            0.0000000000
     19518      6479  TIP3      H2             20.3558096015       10.2597042534       -1.7358646635  SOLV      6468            0.0000000000
     19519      6480  TIP3      OH2            31.5253896015       14.0209442534        8.0355753365  SOLV      6469            0.0000000000
     19520      6480  TIP3      H1             31.3698196015       14.6993842534        7.3785053365  SOLV      6469            0.0000000000
     19521      6480  TIP3      H2             32.4580296015       14.0928742534        8.2386353365  SOLV      6469            0.0000000000
     19522      6481  TIP3      OH2            19.0206296015       -1.8612857466        6.7727153365  SOLV      6470            0.0000000000
     19523      6481  TIP3      H1             18.7916096015       -1.8020357466        5.8452153365  SOLV      6470            0.0000000000
     19524      6481  TIP3      H2             18.5779696015       -2.6527357466        7.0791253365  SOLV      6470            0.0000000000
     19525      6482  TIP3      OH2            17.9509596015       12.0794242534        2.9332953365  SOLV      6471            0.0000000000
     19526      6482  TIP3      H1             17.1188196015       12.5516942534        2.9604353365  SOLV      6471            0.0000000000
     19527      6482  TIP3      H2             18.4967896015       12.5891842534        2.3346053365  SOLV      6471            0.0000000000
     19528      6483  TIP3      OH2            17.2393296015       14.6917942534       14.2630953365  SOLV      6472            0.0000000000
     19529      6483  TIP3      H1             17.7795496015       14.4751942534       15.0230153365  SOLV      6472            0.0000000000
     19530      6483  TIP3      H2             16.7581296015       13.8863942534       14.0733453365  SOLV      6472            0.0000000000
     19531      6484  TIP3      OH2            21.8366696015       13.6112342534       15.8835153365  SOLV      6473            0.0000000000
     19532      6484  TIP3      H1             22.6043896015       13.1523142534       16.2244353365  SOLV      6473            0.0000000000
     19533      6484  TIP3      H2             21.8152896015       13.3852142534       14.9536353365  SOLV      6473            0.0000000000
     19534      6485  TIP3      OH2            25.9286296015       13.1192942534       -2.7413046635  SOLV      6474            0.0000000000
     19535      6485  TIP3      H1             25.2847296015       12.4881542534       -2.4199346635  SOLV      6474            0.0000000000
     19536      6485  TIP3      H2             26.6904596015       12.5880942534       -2.9729546635  SOLV      6474            0.0000000000
     19537      6486  TIP3      OH2            28.4135396015       11.9913442534       14.6126653365  SOLV      6475            0.0000000000
     19538      6486  TIP3      H1             28.0624896015       11.1346442534       14.8557053365  SOLV      6475            0.0000000000
     19539      6486  TIP3      H2             29.1398596015       12.1340142534       15.2195653365  SOLV      6475            0.0000000000
     19540      6487  TIP3      OH2            30.5329196015       12.9362842534       -2.5075046635  SOLV      6476            0.0000000000
     19541      6487  TIP3      H1             30.8159596015       12.1418042534       -2.0548146635  SOLV      6476            0.0000000000
     19542      6487  TIP3      H2             31.2727096015       13.1693842534       -3.0683946635  SOLV      6476            0.0000000000
     19543      6488  TIP3      OH2            17.1462796015        8.5022042534       15.2175253365  SOLV      6477            0.0000000000
     19544      6488  TIP3      H1             17.2903296015        7.6002742534       14.9311953365  SOLV      6477            0.0000000000
     19545      6488  TIP3      H2             16.3740196015        8.7884142534       14.7297553365  SOLV      6477            0.0000000000
     19546      6489  TIP3      OH2            21.4876496015        8.8457742534       -2.6500146635  SOLV      6478            0.0000000000
     19547      6489  TIP3      H1             21.5520596015        8.0517342534       -2.1193746635  SOLV      6478            0.0000000000
     19548      6489  TIP3      H2             22.1405696015        8.7270542534       -3.3398146635  SOLV      6478            0.0000000000
     19549      6490  TIP3      OH2            23.8018896015        8.4720142534       14.6501653365  SOLV      6479            0.0000000000
     19550      6490  TIP3      H1             23.4732696015        8.7428242534       13.7929053365  SOLV      6479            0.0000000000
     19551      6490  TIP3      H2             23.9537096015        7.5309942534       14.5626653365  SOLV      6479            0.0000000000
     19552      6491  TIP3      OH2            26.8399896015        9.8929442534       -2.9142146635  SOLV      6480            0.0000000000
     19553      6491  TIP3      H1             26.5713996015       10.0731542534       -2.0133246635  SOLV      6480            0.0000000000
     19554      6491  TIP3      H2             26.6335496015        8.9675642534       -3.0456346635  SOLV      6480            0.0000000000
     19555      6492  TIP3      OH2            29.5364096015        8.3877442534       12.0333953365  SOLV      6481            0.0000000000
     19556      6492  TIP3      H1             30.2818896015        8.9761142534       11.9137953365  SOLV      6481            0.0000000000
     19557      6492  TIP3      H2             28.7790896015        8.9697142534       12.0967053365  SOLV      6481            0.0000000000
     19558      6493  TIP3      OH2            17.9789296015        5.7025342534       14.6374553365  SOLV      6482            0.0000000000
     19559      6493  TIP3      H1             18.3870496015        4.8451942534       14.5165153365  SOLV      6482            0.0000000000
     19560      6493  TIP3      H2             17.7186896015        5.7166642534       15.5584853365  SOLV      6482            0.0000000000
     19561      6494  TIP3      OH2            22.6370296015        6.8183942534       -0.3442146635  SOLV      6483            0.0000000000
     19562      6494  TIP3      H1             22.1772296015        6.3342242534        0.3416353365  SOLV      6483            0.0000000000
     19563      6494  TIP3      H2             22.8918996015        6.1499342534       -0.9801646635  SOLV      6483            0.0000000000
     19564      6495  TIP3      OH2            21.9259596015        4.7111042534       12.0117453365  SOLV      6484            0.0000000000
     19565      6495  TIP3      H1             21.3075696015        5.3857642534       12.2922153365  SOLV      6484            0.0000000000
     19566      6495  TIP3      H2             22.2700796015        5.0324942534       11.1783653365  SOLV      6484            0.0000000000
     19567      6496  TIP3      OH2            23.7080696015        5.0615742534       -2.0818946635  SOLV      6485            0.0000000000
     19568      6496  TIP3      H1             23.5275696015        4.9066942534       -3.0090646635  SOLV      6485            0.0000000000
     19569      6496  TIP3      H2             24.6581196015        5.1694442534       -2.0371046635  SOLV      6485            0.0000000000
     19570      6497  TIP3      OH2            26.9457796015        7.1826342534       15.2892253365  SOLV      6486            0.0000000000
     19571      6497  TIP3      H1             27.8988996015        7.2665442534       15.2618253365  SOLV      6486            0.0000000000
     19572      6497  TIP3      H2             26.7852396015        6.4708142534       15.9087153365  SOLV      6486            0.0000000000
     19573      6498  TIP3      OH2            33.0978996015        7.4159942534       -2.6360846635  SOLV      6487            0.0000000000
     19574      6498  TIP3      H1             32.8243796015        6.9915442534       -3.4492546635  SOLV      6487            0.0000000000
     19575      6498  TIP3      H2             33.1373096015        8.3474442534       -2.8530446635  SOLV      6487            0.0000000000
     19576      6499  TIP3      OH2            22.2653296015        2.0661842534       13.0940553365  SOLV      6488            0.0000000000
     19577      6499  TIP3      H1             22.4154196015        1.3373142534       12.4920253365  SOLV      6488            0.0000000000
     19578      6499  TIP3      H2             22.2675696015        2.8433542534       12.5352753365  SOLV      6488            0.0000000000
     19579      6500  TIP3      OH2            22.6778996015        0.4357642534       10.5867953365  SOLV      6489            0.0000000000
     19580      6500  TIP3      H1             23.2136496015        0.8874342534        9.9347253365  SOLV      6489            0.0000000000
     19581      6500  TIP3      H2             21.8258596015        0.3277442534       10.1642053365  SOLV      6489            0.0000000000
     19582      6501  TIP3      OH2            24.2597396015        5.8753842534       10.8263153365  SOLV      6490            0.0000000000
     19583      6501  TIP3      H1             25.0102196015        5.7191342534       10.2530953365  SOLV      6490            0.0000000000
     19584      6501  TIP3      H2             23.9205696015        6.7270442534       10.5508653365  SOLV      6490            0.0000000000
     19585      6502  TIP3      OH2            28.6753596015        3.6905642534       15.8548453365  SOLV      6491            0.0000000000
     19586      6502  TIP3      H1             28.8674896015        2.7595042534       15.7432953365  SOLV      6491            0.0000000000
     19587      6502  TIP3      H2             29.5329896015        4.1155142534       15.8443853365  SOLV      6491            0.0000000000
     19588      6503  TIP3      OH2            29.9920796015        6.4790842534       13.9321153365  SOLV      6492            0.0000000000
     19589      6503  TIP3      H1             29.7105796015        7.1885442534       13.3544953365  SOLV      6492            0.0000000000
     19590      6503  TIP3      H2             30.9345096015        6.4063842534       13.7812353365  SOLV      6492            0.0000000000
     19591      6504  TIP3      OH2            20.7439596015        3.2645342534       15.0056153365  SOLV      6493            0.0000000000
     19592      6504  TIP3      H1             19.9768596015        2.7320142534       14.7953753365  SOLV      6493            0.0000000000
     19593      6504  TIP3      H2             21.4228596015        2.9545742534       14.4062453365  SOLV      6493            0.0000000000
     19594      6505  TIP3      OH2            23.4834496015       -2.1076657466       11.0181553365  SOLV      6494            0.0000000000
     19595      6505  TIP3      H1             23.3854096015       -1.1613457466       10.9127753365  SOLV      6494            0.0000000000
     19596      6505  TIP3      H2             22.7410696015       -2.4802857466       10.5425053365  SOLV      6494            0.0000000000
     19597      6506  TIP3      OH2            24.7474996015        2.2138742534       14.5819953365  SOLV      6495            0.0000000000
     19598      6506  TIP3      H1             24.5120396015        1.9945442534       15.4834853365  SOLV      6495            0.0000000000
     19599      6506  TIP3      H2             23.9641896015        2.0069942534       14.0722453365  SOLV      6495            0.0000000000
     19600      6507  TIP3      OH2            27.4631596015        1.3412242534       13.6573453365  SOLV      6496            0.0000000000
     19601      6507  TIP3      H1             26.5156996015        1.3731942534       13.7896753365  SOLV      6496            0.0000000000
     19602      6507  TIP3      H2             27.7758296015        0.7159342534       14.3111653365  SOLV      6496            0.0000000000
     19603      6508  TIP3      OH2            29.0973096015       -0.0246657466       15.6625353365  SOLV      6497            0.0000000000
     19604      6508  TIP3      H1             29.0004896015       -0.9769357466       15.6567253365  SOLV      6497            0.0000000000
     19605      6508  TIP3      H2             28.7756196015        0.2440142534       16.5230853365  SOLV      6497            0.0000000000
     19606      6509  TIP3      OH2            18.9242396015        1.1849142534       14.7100853365  SOLV      6498            0.0000000000
     19607      6509  TIP3      H1             19.1359796015        0.4785242534       14.0998353365  SOLV      6498            0.0000000000
     19608      6509  TIP3      H2             18.8129896015        0.7475142534       15.5542053365  SOLV      6498            0.0000000000
     19609      6510  TIP3      OH2            23.7052596015       -2.8139257466       13.6894353365  SOLV      6499            0.0000000000
     19610      6510  TIP3      H1             24.4170996015       -3.4537057466       13.6753453365  SOLV      6499            0.0000000000
     19611      6510  TIP3      H2             23.6042996015       -2.5470957466       12.7757453365  SOLV      6499            0.0000000000
     19612      6511  TIP3      OH2            24.0590096015       -1.1310857466       15.7430653365  SOLV      6500            0.0000000000
     19613      6511  TIP3      H1             23.9272296015       -1.6067057466       14.9229153365  SOLV      6500            0.0000000000
     19614      6511  TIP3      H2             23.4597496015       -0.3867257466       15.6877753365  SOLV      6500            0.0000000000
     19615      6512  TIP3      OH2            23.6052396015       15.7519442534       -1.0805346635  SOLV      6501            0.0000000000
     19616      6512  TIP3      H1             24.5383096015       15.9098142534       -0.9366946635  SOLV      6501            0.0000000000
     19617      6512  TIP3      H2             23.3411196015       16.4272442534       -1.7053846635  SOLV      6501            0.0000000000
     19618      6513  TIP3      OH2            17.1737296015       10.3883242534       -1.5977246635  SOLV      6502            0.0000000000
     19619      6513  TIP3      H1             18.0876496015       10.4672142534       -1.3243346635  SOLV      6502            0.0000000000
     19620      6513  TIP3      H2             17.1810396015        9.7012842534       -2.2641646635  SOLV      6502            0.0000000000
     19621      6514  TIP3      OH2            15.8227896015       15.7811742534        3.4796653365  SOLV      6503            0.0000000000
     19622      6514  TIP3      H1             15.1754996015       15.3193442534        2.9467853365  SOLV      6503            0.0000000000
     19623      6514  TIP3      H2             16.1772496015       15.1095042534        4.0622853365  SOLV      6503            0.0000000000
     19624      6515  TIP3      OH2            16.6927096015       13.8618742534        5.2842853365  SOLV      6504            0.0000000000
     19625      6515  TIP3      H1             16.3583896015       12.9816042534        5.4563053365  SOLV      6504            0.0000000000
     19626      6515  TIP3      H2             16.9149496015       14.2073742534        6.1488453365  SOLV      6504            0.0000000000
     19627      6516  TIP3      OH2            34.2411896015       14.6715142534        8.2647653365  SOLV      6505            0.0000000000
     19628      6516  TIP3      H1             34.2198596015       14.8563542534        9.2037053365  SOLV      6505            0.0000000000
     19629      6516  TIP3      H2             34.9318096015       15.2399142534        7.9239053365  SOLV      6505            0.0000000000
     19630      6517  TIP3      OH2            33.8044796015       14.2386242534       11.1866753365  SOLV      6506            0.0000000000
     19631      6517  TIP3      H1             33.3173496015       13.5030342534       10.8154153365  SOLV      6506            0.0000000000
     19632      6517  TIP3      H2             34.3537496015       13.8450142534       11.8646153365  SOLV      6506            0.0000000000
     19633      6518  TIP3      OH2            32.2552096015       10.0284342534       15.8247053365  SOLV      6507            0.0000000000
     19634      6518  TIP3      H1             31.3893196015        9.9234042534       16.2189353365  SOLV      6507            0.0000000000
     19635      6518  TIP3      H2             32.6317996015       10.7867642534       16.2711753365  SOLV      6507            0.0000000000
     19636      6519  TIP3      OH2            33.5561796015        8.2848042534        1.3389553365  SOLV      6508            0.0000000000
     19637      6519  TIP3      H1             34.4063196015        8.7058942534        1.4661153365  SOLV      6508            0.0000000000
     19638      6519  TIP3      H2             33.5616896015        7.5448142534        1.9460953365  SOLV      6508            0.0000000000
     19639      6520  TIP3      OH2            33.9507396015        6.3385442534        3.1625253365  SOLV      6509            0.0000000000
     19640      6520  TIP3      H1             33.2241996015        5.8588042534        3.5602853365  SOLV      6509            0.0000000000
     19641      6520  TIP3      H2             34.5320696015        6.5440142534        3.8946853365  SOLV      6509            0.0000000000
     19642      6521  TIP3      OH2            33.7098596015        9.1232942534        8.1102853365  SOLV      6510            0.0000000000
     19643      6521  TIP3      H1             34.5432796015        8.7452942534        7.8296453365  SOLV      6510            0.0000000000
     19644      6521  TIP3      H2             33.8218896015       10.0664142534        7.9911953365  SOLV      6510            0.0000000000
     19645      6522  TIP3      OH2            32.1960896015       12.0010442534       10.4171253365  SOLV      6511            0.0000000000
     19646      6522  TIP3      H1             31.5486196015       12.3261942534       11.0426453365  SOLV      6511            0.0000000000
     19647      6522  TIP3      H2             31.6784896015       11.5608142534        9.7429553365  SOLV      6511            0.0000000000
     19648      6523  TIP3      OH2            34.2190496015        6.2393942534       -0.4463446635  SOLV      6512            0.0000000000
     19649      6523  TIP3      H1             33.6971596015        6.5958042534       -1.1652546635  SOLV      6512            0.0000000000
     19650      6523  TIP3      H2             34.1859696015        6.9141742534        0.2317453365  SOLV      6512            0.0000000000
     19651      6524  TIP3      OH2            32.5679496015        3.4789542534       -1.8956346635  SOLV      6513            0.0000000000
     19652      6524  TIP3      H1             32.6643896015        4.1456542534       -2.5756646635  SOLV      6513            0.0000000000
     19653      6524  TIP3      H2             32.4279096015        2.6635842534       -2.3770846635  SOLV      6513            0.0000000000
     19654      6525  TIP3      OH2            31.7374196015        4.8591942534        3.7253953365  SOLV      6514            0.0000000000
     19655      6525  TIP3      H1             31.5872996015        3.9140542534        3.7051753365  SOLV      6514            0.0000000000
     19656      6525  TIP3      H2             31.3838696015        5.1403342534        4.5693053365  SOLV      6514            0.0000000000
     19657      6526  TIP3      OH2            16.7726596015        6.9374142534        7.7357753365  SOLV      6515            0.0000000000
     19658      6526  TIP3      H1             16.9569496015        6.8555842534        6.8000653365  SOLV      6515            0.0000000000
     19659      6526  TIP3      H2             17.6219496015        6.8131142534        8.1594153365  SOLV      6515            0.0000000000
     19660      6527  TIP3      OH2            32.5937096015        6.8295242534       13.3642253365  SOLV      6516            0.0000000000
     19661      6527  TIP3      H1             33.1764396015        6.0947542534       13.5559453365  SOLV      6516            0.0000000000
     19662      6527  TIP3      H2             33.1576396015        7.6015542534       13.4108053365  SOLV      6516            0.0000000000
     19663      6528  TIP3      OH2            34.0904196015        4.7321042534       14.0487653365  SOLV      6517            0.0000000000
     19664      6528  TIP3      H1             33.2270896015        4.3533142534       13.8832353365  SOLV      6517            0.0000000000
     19665      6528  TIP3      H2             34.6947896015        3.9935842534       13.9743453365  SOLV      6517            0.0000000000
     19666      6529  TIP3      OH2            31.8153296015        0.8869342534       -2.7780846635  SOLV      6518            0.0000000000
     19667      6529  TIP3      H1             32.4259096015        0.5156142534       -2.1412646635  SOLV      6518            0.0000000000
     19668      6529  TIP3      H2             30.9784796015        0.4656242534       -2.5820846635  SOLV      6518            0.0000000000
     19669      6530  TIP3      OH2            31.4478996015        2.4417742534        2.1879053365  SOLV      6519            0.0000000000
     19670      6530  TIP3      H1             31.7276096015        1.5348142534        2.3120753365  SOLV      6519            0.0000000000
     19671      6530  TIP3      H2             32.2070696015        2.8759242534        1.7988253365  SOLV      6519            0.0000000000
     19672      6531  TIP3      OH2            32.0597296015        3.0235142534        7.6237953365  SOLV      6520            0.0000000000
     19673      6531  TIP3      H1             32.9925296015        3.2355042534        7.5893953365  SOLV      6520            0.0000000000
     19674      6531  TIP3      H2             31.8244796015        3.1247242534        8.5460953365  SOLV      6520            0.0000000000
     19675      6532  TIP3      OH2            32.0889196015        3.7600442534       10.3997353365  SOLV      6521            0.0000000000
     19676      6532  TIP3      H1             31.2460496015        4.0280842534       10.7657153365  SOLV      6521            0.0000000000
     19677      6532  TIP3      H2             32.5313496015        4.5822342534       10.1888453365  SOLV      6521            0.0000000000
     19678      6533  TIP3      OH2            16.3701396015        2.2079142534       13.8766553365  SOLV      6522            0.0000000000
     19679      6533  TIP3      H1             17.2896296015        2.0857442534       14.1129653365  SOLV      6522            0.0000000000
     19680      6533  TIP3      H2             15.9205896015        1.4578842534       14.2660053365  SOLV      6522            0.0000000000
     19681      6534  TIP3      OH2            34.3720796015       -2.2599357466       15.7532353365  SOLV      6523            0.0000000000
     19682      6534  TIP3      H1             34.7217796015       -2.9135857466       15.1477053365  SOLV      6523            0.0000000000
     19683      6534  TIP3      H2             34.5190296015       -1.4225257466       15.3134953365  SOLV      6523            0.0000000000
     19684      6535  TIP3      OH2            32.0613796015       -0.2952957466        2.2361053365  SOLV      6524            0.0000000000
     19685      6535  TIP3      H1             32.2438796015       -0.7441457466        3.0616053365  SOLV      6524            0.0000000000
     19686      6535  TIP3      H2             31.4616696015       -0.8798557466        1.7725653365  SOLV      6524            0.0000000000
     19687      6536  TIP3      OH2            17.5913896015        0.5200742534        6.7679453365  SOLV      6525            0.0000000000
     19688      6536  TIP3      H1             18.0365496015       -0.2716757466        7.0699153365  SOLV      6525            0.0000000000
     19689      6536  TIP3      H2             18.0576896015        1.2365942534        7.1985053365  SOLV      6525            0.0000000000
     19690      6537  TIP3      OH2            15.8954196015        3.5193742534        7.8369653365  SOLV      6526            0.0000000000
     19691      6537  TIP3      H1             16.3873996015        3.2984242534        7.0461653365  SOLV      6526            0.0000000000
     19692      6537  TIP3      H2             16.2575096015        4.3597142534        8.1179153365  SOLV      6526            0.0000000000
     19693      6538  TIP3      OH2            33.8917996015       -0.1504757466       14.1023653365  SOLV      6527            0.0000000000
     19694      6538  TIP3      H1             32.9743696015        0.1202342534       14.0667153365  SOLV      6527            0.0000000000
     19695      6538  TIP3      H2             34.0147396015       -0.6856357466       13.3183353365  SOLV      6527            0.0000000000
     19696      6539  TIP3      OH2            33.9279996015       -0.2274857466       -1.2358646635  SOLV      6528            0.0000000000
     19697      6539  TIP3      H1             34.3402596015       -0.9489157466       -1.7110646635  SOLV      6528            0.0000000000
     19698      6539  TIP3      H2             34.6096496015        0.4419742534       -1.1774346635  SOLV      6528            0.0000000000
     19699      6540  TIP3      OH2            30.9797896015       14.7614542534        3.8369453365  SOLV      6529            0.0000000000
     19700      6540  TIP3      H1             31.6320796015       14.4136642534        3.2288553365  SOLV      6529            0.0000000000
     19701      6540  TIP3      H2             31.4901696015       15.2497742534        4.4829153365  SOLV      6529            0.0000000000
     19702      6541  TIP3      OH2            16.1726096015       -1.4848157466       10.2354553365  SOLV      6530            0.0000000000
     19703      6541  TIP3      H1             15.5076596015       -1.7307857466       10.8785453365  SOLV      6530            0.0000000000
     19704      6541  TIP3      H2             15.7297396015       -0.8627757466        9.6582553365  SOLV      6530            0.0000000000
     19705      6542  TIP3      OH2            18.3645396015       11.6905942534       14.3800353365  SOLV      6531            0.0000000000
     19706      6542  TIP3      H1             17.5437896015       11.8652442534       13.9195053365  SOLV      6531            0.0000000000
     19707      6542  TIP3      H2             18.1123196015       11.6170642534       15.3004753365  SOLV      6531            0.0000000000
     19708      6543  TIP3      OH2            21.3188296015       12.6647142534       10.6384353365  SOLV      6532            0.0000000000
     19709      6543  TIP3      H1             20.8939396015       13.4745642534       10.3558953365  SOLV      6532            0.0000000000
     19710      6543  TIP3      H2             22.2231096015       12.7501242534       10.3364153365  SOLV      6532            0.0000000000
     19711      6544  TIP3      OH2            25.6299696015       14.0637142534       13.5978053365  SOLV      6533            0.0000000000
     19712      6544  TIP3      H1             25.8147196015       13.7303242534       14.4758353365  SOLV      6533            0.0000000000
     19713      6544  TIP3      H2             26.4764196015       14.3735742534       13.2757253365  SOLV      6533            0.0000000000
     19714      6545  TIP3      OH2            27.9750096015       15.3496042534       12.8419453365  SOLV      6534            0.0000000000
     19715      6545  TIP3      H1             28.6518996015       14.7168342534       12.6018653365  SOLV      6534            0.0000000000
     19716      6545  TIP3      H2             28.2968896015       15.7506542534       13.6492753365  SOLV      6534            0.0000000000
     19717      6546  TIP3      OH2            32.8923896015       -2.0608457466       11.9214453365  SOLV      6535            0.0000000000
     19718      6546  TIP3      H1             32.0797396015       -1.7358157466       11.5339153365  SOLV      6535            0.0000000000
     19719      6546  TIP3      H2             33.1252396015       -2.8209957466       11.3883553365  SOLV      6535            0.0000000000
     19720      6547  TIP3      OH2            18.7204996015       15.9211042534       10.6859653365  SOLV      6536            0.0000000000
     19721      6547  TIP3      H1             18.0001396015       16.3612042534       10.2347353365  SOLV      6536            0.0000000000
     19722      6547  TIP3      H2             18.3548996015       15.6705742534       11.5343653365  SOLV      6536            0.0000000000
     19723      6548  TIP3      OH2            21.1877596015       15.5214942534        9.7156853365  SOLV      6537            0.0000000000
     19724      6548  TIP3      H1             20.3229796015       15.5933442534       10.1196953365  SOLV      6537            0.0000000000
     19725      6548  TIP3      H2             21.1326596015       16.0682242534        8.9319353365  SOLV      6537            0.0000000000
     19726      6549  TIP3      OH2            25.8983196015       15.4093842534        8.8912853365  SOLV      6538            0.0000000000
     19727      6549  TIP3      H1             25.4417196015       15.9383542534        8.2371253365  SOLV      6538            0.0000000000
     19728      6549  TIP3      H2             26.0611196015       16.0125242534        9.6165153365  SOLV      6538            0.0000000000
     19729      6550  TIP3      OH2            28.2259496015       14.2873442534        9.8363153365  SOLV      6539            0.0000000000
     19730      6550  TIP3      H1             27.3213196015       14.4523642534        9.5705253365  SOLV      6539            0.0000000000
     19731      6550  TIP3      H2             28.6548096015       15.1405642534        9.7706553365  SOLV      6539            0.0000000000
     19732      6551  TIP3      OH2            30.8301396015       15.8572542534       10.1310953365  SOLV      6540            0.0000000000
     19733      6551  TIP3      H1             30.6483396015       16.7731442534        9.9205853365  SOLV      6540            0.0000000000
     19734      6551  TIP3      H2             31.0069196015       15.4469642534        9.2845553365  SOLV      6540            0.0000000000
     19735      6552  TIP3      OH2            18.1353096015       14.5443542534        7.5961453365  SOLV      6541            0.0000000000
     19736      6552  TIP3      H1             18.1169096015       14.1188642534        8.4533753365  SOLV      6541            0.0000000000
     19737      6552  TIP3      H2             18.9400996015       14.2258542534        7.1873653365  SOLV      6541            0.0000000000
     19738      6553  TIP3      OH2            20.2766196015       13.2542242534        6.2511353365  SOLV      6542            0.0000000000
     19739      6553  TIP3      H1             20.0576896015       12.3379642534        6.4207353365  SOLV      6542            0.0000000000
     19740      6553  TIP3      H2             21.1008396015       13.3942642534        6.7172753365  SOLV      6542            0.0000000000
     19741      6554  TIP3      OH2            22.8138696015       13.7241542534        7.0999353365  SOLV      6543            0.0000000000
     19742      6554  TIP3      H1             23.0264396015       12.8360542534        6.8130253365  SOLV      6543            0.0000000000
     19743      6554  TIP3      H2             22.8783796015       13.6899242534        8.0543353365  SOLV      6543            0.0000000000
     19744      6555  TIP3      OH2            26.3222396015       -0.6117857466        6.2442653365  SOLV      6544            0.0000000000
     19745      6555  TIP3      H1             25.6479196015       -1.2412257466        6.4998453365  SOLV      6544            0.0000000000
     19746      6555  TIP3      H2             26.8861596015       -1.0958957466        5.6410553365  SOLV      6544            0.0000000000
     19747      6556  TIP3      OH2            31.4649596015       -2.5043857466        6.3569753365  SOLV      6545            0.0000000000
     19748      6556  TIP3      H1             32.0687196015       -1.9568457466        5.8550753365  SOLV      6545            0.0000000000
     19749      6556  TIP3      H2             30.5951596015       -2.1853457466        6.1163853365  SOLV      6545            0.0000000000
     19750      6557  TIP3      OH2            33.1919996015       -1.3655157466        4.6900653365  SOLV      6546            0.0000000000
     19751      6557  TIP3      H1             33.8037496015       -1.8799457466        4.1634253365  SOLV      6546            0.0000000000
     19752      6557  TIP3      H2             33.5743396015       -0.4883057466        4.7135053365  SOLV      6546            0.0000000000
     19753      6558  TIP3      OH2            18.6489896015       -1.9777557466        4.0662553365  SOLV      6547            0.0000000000
     19754      6558  TIP3      H1             17.8719696015       -2.2122657466        3.5588453365  SOLV      6547            0.0000000000
     19755      6558  TIP3      H2             19.1793496015       -2.7745457466        4.0750553365  SOLV      6547            0.0000000000
     19756      6559  TIP3      OH2            23.2282496015       -2.0510457466        3.8795653365  SOLV      6548            0.0000000000
     19757      6559  TIP3      H1             24.1025896015       -1.6626157466        3.8499953365  SOLV      6548            0.0000000000
     19758      6559  TIP3      H2             23.0923296015       -2.2662657466        4.8022853365  SOLV      6548            0.0000000000
     19759      6560  TIP3      OH2            28.7850896015       -2.0210657466        5.5287353365  SOLV      6549            0.0000000000
     19760      6560  TIP3      H1             28.8612496015       -1.9259057466        4.5793353365  SOLV      6549            0.0000000000
     19761      6560  TIP3      H2             28.5100096015       -2.9287757466        5.6576453365  SOLV      6549            0.0000000000
     19762      6561  TIP3      OH2            30.1383496015       -1.9952857466        1.2212353365  SOLV      6550            0.0000000000
     19763      6561  TIP3      H1             29.4354596015       -1.3803657466        1.0113753365  SOLV      6550            0.0000000000
     19764      6561  TIP3      H2             29.6934896015       -2.8326157466        1.3523253365  SOLV      6550            0.0000000000
     19765      6562  TIP3      OH2            17.3862796015       13.7682742534        0.7673753365  SOLV      6551            0.0000000000
     19766      6562  TIP3      H1             16.7012696015       13.7301642534        0.0998853365  SOLV      6551            0.0000000000
     19767      6562  TIP3      H2             17.3899996015       14.6810342534        1.0555853365  SOLV      6551            0.0000000000
     19768      6563  TIP3      OH2            19.3462396015       -0.2637957466       -1.6877246635  SOLV      6552            0.0000000000
     19769      6563  TIP3      H1             19.8375796015       -0.8935557466       -2.2151746635  SOLV      6552            0.0000000000
     19770      6563  TIP3      H2             19.9698696015        0.0321442534       -1.0246046635  SOLV      6552            0.0000000000
     19771      6564  TIP3      OH2            24.3722496015        0.0293542534        0.7693253365  SOLV      6553            0.0000000000
     19772      6564  TIP3      H1             24.5503796015       -0.6173257466        1.4521853365  SOLV      6553            0.0000000000
     19773      6564  TIP3      H2             24.3188696015        0.8631242534        1.2364353365  SOLV      6553            0.0000000000
     19774      6565  TIP3      OH2            26.2506296015       14.9777642534       -0.8350046635  SOLV      6554            0.0000000000
     19775      6565  TIP3      H1             27.1166496015       15.3445042534       -1.0131846635  SOLV      6554            0.0000000000
     19776      6565  TIP3      H2             26.0039096015       14.5385642534       -1.6489246635  SOLV      6554            0.0000000000
     19777      6566  TIP3      OH2            32.9595896015       14.5407942534        1.8441053365  SOLV      6555            0.0000000000
     19778      6566  TIP3      H1             32.7652996015       13.7930042534        1.2790653365  SOLV      6555            0.0000000000
     19779      6566  TIP3      H2             32.9205996015       15.2988042534        1.2608953365  SOLV      6555            0.0000000000
     19780      6567  TIP3      OH2            18.6067896015       -1.4635657466       13.5838753365  SOLV      6556            0.0000000000
     19781      6567  TIP3      H1             18.2406096015       -2.2293057466       14.0263453365  SOLV      6556            0.0000000000
     19782      6567  TIP3      H2             19.5196396015       -1.4345457466       13.8703853365  SOLV      6556            0.0000000000
     19783      6568  TIP3      OH2            20.5798696015       -2.1131257466       15.1195853365  SOLV      6557            0.0000000000
     19784      6568  TIP3      H1             21.4782296015       -2.3871057466       14.9349253365  SOLV      6557            0.0000000000
     19785      6568  TIP3      H2             20.1931796015       -2.8555257466       15.5838453365  SOLV      6557            0.0000000000
     19786      6569  TIP3      OH2            19.2043996015       14.6883542534       -2.2074146635  SOLV      6558            0.0000000000
     19787      6569  TIP3      H1             18.9368596015       14.9746442534       -1.3341046635  SOLV      6558            0.0000000000
     19788      6569  TIP3      H2             19.9756596015       14.1422742534       -2.0551646635  SOLV      6558            0.0000000000
     19789      6570  TIP3      OH2            29.0010996015       -2.7805957466       15.3018653365  SOLV      6559            0.0000000000
     19790      6570  TIP3      H1             29.0778196015       -3.2065257466       16.1556353365  SOLV      6559            0.0000000000
     19791      6570  TIP3      H2             29.8947596015       -2.7671257466       14.9592153365  SOLV      6559            0.0000000000
     19792      6571  TIP3      OH2            32.1772096015       13.2920342534       13.9942853365  SOLV      6560            0.0000000000
     19793      6571  TIP3      H1             31.3953996015       13.1058342534       13.4743453365  SOLV      6560            0.0000000000
     19794      6571  TIP3      H2             32.1051996015       14.2214642534       14.2115353365  SOLV      6560            0.0000000000
     19795      6572  TIP3      OH2            37.8848796015        6.0477542534        9.0368153365  SOLV      6561            0.0000000000
     19796      6572  TIP3      H1             37.9260896015        5.4220842534        9.7600553365  SOLV      6561            0.0000000000
     19797      6572  TIP3      H2             38.5876496015        6.6716142534        9.2188553365  SOLV      6561            0.0000000000
     19798      6573  TIP3      OH2            38.8081896015       10.4976442534        7.5717253365  SOLV      6562            0.0000000000
     19799      6573  TIP3      H1             38.4387096015        9.6956942534        7.2021553365  SOLV      6562            0.0000000000
     19800      6573  TIP3      H2             39.7492996015       10.3291342534        7.6180653365  SOLV      6562            0.0000000000
     19801      6574  TIP3      OH2            35.4182396015        4.1579042534        2.9646053365  SOLV      6563            0.0000000000
     19802      6574  TIP3      H1             34.9705796015        5.0037742534        2.9462553365  SOLV      6563            0.0000000000
     19803      6574  TIP3      H2             34.8573596015        3.5783242534        2.4491153365  SOLV      6563            0.0000000000
     19804      6575  TIP3      OH2            36.1288496015        6.3198642534        5.0904053365  SOLV      6564            0.0000000000
     19805      6575  TIP3      H1             36.3421996015        5.5500242534        5.6177053365  SOLV      6564            0.0000000000
     19806      6575  TIP3      H2             36.8666096015        6.4095342534        4.4871653365  SOLV      6564            0.0000000000
     19807      6576  TIP3      OH2            36.8214996015        3.7581442534        6.2120253365  SOLV      6565            0.0000000000
     19808      6576  TIP3      H1             37.4751596015        3.2083142534        6.6440353365  SOLV      6565            0.0000000000
     19809      6576  TIP3      H2             36.8454296015        3.4840442534        5.2952253365  SOLV      6565            0.0000000000
     19810      6577  TIP3      OH2            39.0115396015        0.2794042534        9.5239653365  SOLV      6566            0.0000000000
     19811      6577  TIP3      H1             38.7927096015        0.8094642534        8.7575653365  SOLV      6566            0.0000000000
     19812      6577  TIP3      H2             38.3436296015        0.5059542534       10.1711053365  SOLV      6566            0.0000000000
     19813      6578  TIP3      OH2            38.6052696015        2.1715842534        7.4761853365  SOLV      6567            0.0000000000
     19814      6578  TIP3      H1             39.2188996015        2.8043442534        7.8494253365  SOLV      6567            0.0000000000
     19815      6578  TIP3      H2             39.1173396015        1.6990842534        6.8198753365  SOLV      6567            0.0000000000
     19816      6579  TIP3      OH2            39.9881096015        9.9192742534       10.5984853365  SOLV      6568            0.0000000000
     19817      6579  TIP3      H1             39.9828696015       10.7986242534       10.2204153365  SOLV      6568            0.0000000000
     19818      6579  TIP3      H2             39.1345196015        9.8356842534       11.0234753365  SOLV      6568            0.0000000000
     19819      6580  TIP3      OH2            36.1091996015        9.5900642534        1.3804153365  SOLV      6569            0.0000000000
     19820      6580  TIP3      H1             35.8372896015        9.8191642534        0.4917053365  SOLV      6569            0.0000000000
     19821      6580  TIP3      H2             36.1547696015       10.4279442534        1.8409453365  SOLV      6569            0.0000000000
     19822      6581  TIP3      OH2            40.3556396015        7.2624242534        4.3111253365  SOLV      6570            0.0000000000
     19823      6581  TIP3      H1             40.0251596015        6.8917642534        3.4928253365  SOLV      6570            0.0000000000
     19824      6581  TIP3      H2             40.9440496015        6.5918242534        4.6579553365  SOLV      6570            0.0000000000
     19825      6582  TIP3      OH2            38.5222496015        6.6283642534       11.8903853365  SOLV      6571            0.0000000000
     19826      6582  TIP3      H1             38.5925696015        7.2790442534       12.5888853365  SOLV      6571            0.0000000000
     19827      6582  TIP3      H2             37.6314696015        6.7311142534       11.5554753365  SOLV      6571            0.0000000000
     19828      6583  TIP3      OH2            39.8418496015       12.5017542534       13.4251953365  SOLV      6572            0.0000000000
     19829      6583  TIP3      H1             39.8493796015       12.3657242534       12.4777453365  SOLV      6572            0.0000000000
     19830      6583  TIP3      H2             38.9258896015       12.3845642534       13.6771953365  SOLV      6572            0.0000000000
     19831      6584  TIP3      OH2            39.3459096015        6.3318542534        1.9004053365  SOLV      6573            0.0000000000
     19832      6584  TIP3      H1             39.0540396015        7.1000242534        1.4095353365  SOLV      6573            0.0000000000
     19833      6584  TIP3      H2             38.6714296015        5.6724742534        1.7375453365  SOLV      6573            0.0000000000
     19834      6585  TIP3      OH2            35.4389196015        8.6947742534       10.7153853365  SOLV      6574            0.0000000000
     19835      6585  TIP3      H1             34.9377596015        8.6667142534        9.9003553365  SOLV      6574            0.0000000000
     19836      6585  TIP3      H2             35.4442896015        7.7890942534       11.0251153365  SOLV      6574            0.0000000000
     19837      6586  TIP3      OH2            35.1891896015       11.4751542534        7.5994053365  SOLV      6575            0.0000000000
     19838      6586  TIP3      H1             36.1352496015       11.3308542534        7.5803553365  SOLV      6575            0.0000000000
     19839      6586  TIP3      H2             35.0768196015       12.2594342534        8.1365253365  SOLV      6575            0.0000000000
     19840      6587  TIP3      OH2            38.4333996015       14.2761142534        3.7448753365  SOLV      6576            0.0000000000
     19841      6587  TIP3      H1             38.5854396015       13.9281542534        4.6235253365  SOLV      6576            0.0000000000
     19842      6587  TIP3      H2             37.5824396015       13.9198442534        3.4895953365  SOLV      6576            0.0000000000
     19843      6588  TIP3      OH2            37.6879696015       10.0183142534       11.7586653365  SOLV      6577            0.0000000000
     19844      6588  TIP3      H1             37.9040996015        9.6568742534       12.6182453365  SOLV      6577            0.0000000000
     19845      6588  TIP3      H2             36.8324396015        9.6436942534       11.5490153365  SOLV      6577            0.0000000000
     19846      6589  TIP3      OH2            40.3977796015        3.4538142534        8.8491053365  SOLV      6578            0.0000000000
     19847      6589  TIP3      H1             39.7559896015        3.4135442534        9.5581153365  SOLV      6578            0.0000000000
     19848      6589  TIP3      H2             40.4349796015        4.3802842534        8.6114053365  SOLV      6578            0.0000000000
     19849      6590  TIP3      OH2            40.3946896015        3.6748242534        3.7611053365  SOLV      6579            0.0000000000
     19850      6590  TIP3      H1             39.5019796015        3.3344342534        3.7024853365  SOLV      6579            0.0000000000
     19851      6590  TIP3      H2             40.8453496015        3.2979142534        3.0054253365  SOLV      6579            0.0000000000
     19852      6591  TIP3      OH2            38.1478296015        3.7741642534       10.7163053365  SOLV      6580            0.0000000000
     19853      6591  TIP3      H1             38.1097696015        4.1743242534       11.5850153365  SOLV      6580            0.0000000000
     19854      6591  TIP3      H2             37.6569396015        2.9574042534       10.8065953365  SOLV      6580            0.0000000000
     19855      6592  TIP3      OH2            34.7559096015        0.8903442534        4.5667753365  SOLV      6581            0.0000000000
     19856      6592  TIP3      H1             35.3866796015        0.8615542534        5.2861653365  SOLV      6581            0.0000000000
     19857      6592  TIP3      H2             35.2053396015        0.4652142534        3.8363653365  SOLV      6581            0.0000000000
     19858      6593  TIP3      OH2            36.0301196015        1.6365442534       -0.0091846635  SOLV      6582            0.0000000000
     19859      6593  TIP3      H1             36.5042896015        2.2275342534       -0.5940946635  SOLV      6582            0.0000000000
     19860      6593  TIP3      H2             35.3127596015        2.1668342534        0.3378253365  SOLV      6582            0.0000000000
     19861      6594  TIP3      OH2            37.8045596015        2.7312042534        3.6742753365  SOLV      6583            0.0000000000
     19862      6594  TIP3      H1             36.9153596015        2.8307542534        3.3342353365  SOLV      6583            0.0000000000
     19863      6594  TIP3      H2             38.1010496015        1.8895042534        3.3280653365  SOLV      6583            0.0000000000
     19864      6595  TIP3      OH2            40.1317596015        3.9256842534       -1.1026546635  SOLV      6584            0.0000000000
     19865      6595  TIP3      H1             39.5892696015        3.5460642534       -1.7938946635  SOLV      6584            0.0000000000
     19866      6595  TIP3      H2             40.9652496015        4.1201542534       -1.5312446635  SOLV      6584            0.0000000000
     19867      6596  TIP3      OH2            38.2668996015        8.4828742534       13.9965053365  SOLV      6585            0.0000000000
     19868      6596  TIP3      H1             38.9991396015        8.7374642534       14.5579553365  SOLV      6585            0.0000000000
     19869      6596  TIP3      H2             37.4867696015        8.6874142534       14.5120453365  SOLV      6585            0.0000000000
     19870      6597  TIP3      OH2            38.5918696015        7.7862542534        6.6029453365  SOLV      6586            0.0000000000
     19871      6597  TIP3      H1             39.3365896015        7.7838242534        6.0015953365  SOLV      6586            0.0000000000
     19872      6597  TIP3      H2             38.6695296015        6.9626342534        7.0844553365  SOLV      6586            0.0000000000
     19873      6598  TIP3      OH2            35.5998396015        6.2469442534       11.9177953365  SOLV      6587            0.0000000000
     19874      6598  TIP3      H1             35.8226996015        5.8289042534       12.7495453365  SOLV      6587            0.0000000000
     19875      6598  TIP3      H2             34.9978496015        5.6344442534       11.4950753365  SOLV      6587            0.0000000000
     19876      6599  TIP3      OH2            36.7215796015        6.1664842534       -1.4056646635  SOLV      6588            0.0000000000
     19877      6599  TIP3      H1             37.3375696015        6.7932042534       -1.0261846635  SOLV      6588            0.0000000000
     19878      6599  TIP3      H2             35.8598396015        6.4824642534       -1.1340146635  SOLV      6588            0.0000000000
     19879      6600  TIP3      OH2            37.2337896015        1.0002142534       11.4759353365  SOLV      6589            0.0000000000
     19880      6600  TIP3      H1             36.3410196015        1.3387542534       11.4083353365  SOLV      6589            0.0000000000
     19881      6600  TIP3      H2             37.1350696015        0.1448242534       11.8940153365  SOLV      6589            0.0000000000
     19882      6601  TIP3      OH2            36.8849896015       12.8046542534        9.9108753365  SOLV      6590            0.0000000000
     19883      6601  TIP3      H1             37.1020196015       11.8728942534        9.8798453365  SOLV      6590            0.0000000000
     19884      6601  TIP3      H2             37.1313396015       13.0791542534       10.7941553365  SOLV      6590            0.0000000000
     19885      6602  TIP3      OH2            38.1366196015        8.0788642534        0.0868953365  SOLV      6591            0.0000000000
     19886      6602  TIP3      H1             37.4505496015        8.4311142534        0.6538653365  SOLV      6591            0.0000000000
     19887      6602  TIP3      H2             38.6594096015        8.8418242534       -0.1596746635  SOLV      6591            0.0000000000
     19888      6603  TIP3      OH2            38.7525096015       10.6927542534       -1.0163246635  SOLV      6592            0.0000000000
     19889      6603  TIP3      H1             39.3446596015       11.3922342534       -0.7400846635  SOLV      6592            0.0000000000
     19890      6603  TIP3      H2             39.2118096015       10.2597042534       -1.7358646635  SOLV      6592            0.0000000000
     19891      6604  TIP3      OH2            37.0684296015        3.3570542534       -1.9003846635  SOLV      6593            0.0000000000
     19892      6604  TIP3      H1             37.0236896015        4.2963642534       -1.7216846635  SOLV      6593            0.0000000000
     19893      6604  TIP3      H2             36.1807496015        3.1215442534       -2.1701746635  SOLV      6593            0.0000000000
     19894      6605  TIP3      OH2            37.8766296015       -1.8612857466        6.7727153365  SOLV      6594            0.0000000000
     19895      6605  TIP3      H1             37.6476096015       -1.8020357466        5.8452153365  SOLV      6594            0.0000000000
     19896      6605  TIP3      H2             37.4339696015       -2.6527357466        7.0791253365  SOLV      6594            0.0000000000
     19897      6606  TIP3      OH2            36.8069596015       12.0794242534        2.9332953365  SOLV      6595            0.0000000000
     19898      6606  TIP3      H1             35.9748196015       12.5516942534        2.9604353365  SOLV      6595            0.0000000000
     19899      6606  TIP3      H2             37.3527896015       12.5891842534        2.3346053365  SOLV      6595            0.0000000000
     19900      6607  TIP3      OH2            36.0953296015       14.6917942534       14.2630953365  SOLV      6596            0.0000000000
     19901      6607  TIP3      H1             36.6355496015       14.4751942534       15.0230153365  SOLV      6596            0.0000000000
     19902      6607  TIP3      H2             35.6141296015       13.8863942534       14.0733453365  SOLV      6596            0.0000000000
     19903      6608  TIP3      OH2            36.0022796015        8.5022042534       15.2175253365  SOLV      6597            0.0000000000
     19904      6608  TIP3      H1             36.1463296015        7.6002742534       14.9311953365  SOLV      6597            0.0000000000
     19905      6608  TIP3      H2             35.2300196015        8.7884142534       14.7297553365  SOLV      6597            0.0000000000
     19906      6609  TIP3      OH2            40.3436496015        8.8457742534       -2.6500146635  SOLV      6598            0.0000000000
     19907      6609  TIP3      H1             40.4080596015        8.0517342534       -2.1193746635  SOLV      6598            0.0000000000
     19908      6609  TIP3      H2             40.9965696015        8.7270542534       -3.3398146635  SOLV      6598            0.0000000000
     19909      6610  TIP3      OH2            36.8349296015        5.7025342534       14.6374553365  SOLV      6599            0.0000000000
     19910      6610  TIP3      H1             37.2430496015        4.8451942534       14.5165153365  SOLV      6599            0.0000000000
     19911      6610  TIP3      H2             36.5746896015        5.7166642534       15.5584853365  SOLV      6599            0.0000000000
     19912      6611  TIP3      OH2            39.5999596015        3.2645342534       15.0056153365  SOLV      6600            0.0000000000
     19913      6611  TIP3      H1             38.8328596015        2.7320142534       14.7953753365  SOLV      6600            0.0000000000
     19914      6611  TIP3      H2             40.2788596015        2.9545742534       14.4062453365  SOLV      6600            0.0000000000
     19915      6612  TIP3      OH2            37.7802396015        1.1849142534       14.7100853365  SOLV      6601            0.0000000000
     19916      6612  TIP3      H1             37.9919796015        0.4785242534       14.0998353365  SOLV      6601            0.0000000000
     19917      6612  TIP3      H2             37.6689896015        0.7475142534       15.5542053365  SOLV      6601            0.0000000000
     19918      6613  TIP3      OH2            36.0297296015       10.3883242534       -1.5977246635  SOLV      6602            0.0000000000
     19919      6613  TIP3      H1             36.9436496015       10.4672142534       -1.3243346635  SOLV      6602            0.0000000000
     19920      6613  TIP3      H2             36.0370396015        9.7012842534       -2.2641646635  SOLV      6602            0.0000000000
     19921      6614  TIP3      OH2            34.6787896015       15.7811742534        3.4796653365  SOLV      6603            0.0000000000
     19922      6614  TIP3      H1             34.0314996015       15.3193442534        2.9467853365  SOLV      6603            0.0000000000
     19923      6614  TIP3      H2             35.0332496015       15.1095042534        4.0622853365  SOLV      6603            0.0000000000
     19924      6615  TIP3      OH2            35.5487096015       13.8618742534        5.2842853365  SOLV      6604            0.0000000000
     19925      6615  TIP3      H1             35.2143896015       12.9816042534        5.4563053365  SOLV      6604            0.0000000000
     19926      6615  TIP3      H2             35.7709496015       14.2073742534        6.1488453365  SOLV      6604            0.0000000000
     19927      6616  TIP3      OH2            35.6286596015        6.9374142534        7.7357753365  SOLV      6605            0.0000000000
     19928      6616  TIP3      H1             35.8129496015        6.8555842534        6.8000653365  SOLV      6605            0.0000000000
     19929      6616  TIP3      H2             36.4779496015        6.8131142534        8.1594153365  SOLV      6605            0.0000000000
     19930      6617  TIP3      OH2            35.2261396015        2.2079142534       13.8766553365  SOLV      6606            0.0000000000
     19931      6617  TIP3      H1             36.1456296015        2.0857442534       14.1129653365  SOLV      6606            0.0000000000
     19932      6617  TIP3      H2             34.7765896015        1.4578842534       14.2660053365  SOLV      6606            0.0000000000
     19933      6618  TIP3      OH2            36.4473896015        0.5200742534        6.7679453365  SOLV      6607            0.0000000000
     19934      6618  TIP3      H1             36.8925496015       -0.2716757466        7.0699153365  SOLV      6607            0.0000000000
     19935      6618  TIP3      H2             36.9136896015        1.2365942534        7.1985053365  SOLV      6607            0.0000000000
     19936      6619  TIP3      OH2            34.7514196015        3.5193742534        7.8369653365  SOLV      6608            0.0000000000
     19937      6619  TIP3      H1             35.2433996015        3.2984242534        7.0461653365  SOLV      6608            0.0000000000
     19938      6619  TIP3      H2             35.1135096015        4.3597142534        8.1179153365  SOLV      6608            0.0000000000
     19939      6620  TIP3      OH2            35.0650696015       -0.2227157466        1.8912053365  SOLV      6609            0.0000000000
     19940      6620  TIP3      H1             34.1399096015       -0.0140557466        1.7617553365  SOLV      6609            0.0000000000
     19941      6620  TIP3      H2             35.5190596015        0.2613642534        1.2014353365  SOLV      6609            0.0000000000
     19942      6621  TIP3      OH2            35.0286096015       -1.4848157466       10.2354553365  SOLV      6610            0.0000000000
     19943      6621  TIP3      H1             34.3636596015       -1.7307857466       10.8785453365  SOLV      6610            0.0000000000
     19944      6621  TIP3      H2             34.5857396015       -0.8627757466        9.6582553365  SOLV      6610            0.0000000000
     19945      6622  TIP3      OH2            37.2205396015       11.6905942534       14.3800353365  SOLV      6611            0.0000000000
     19946      6622  TIP3      H1             36.3997896015       11.8652442534       13.9195053365  SOLV      6611            0.0000000000
     19947      6622  TIP3      H2             36.9683196015       11.6170642534       15.3004753365  SOLV      6611            0.0000000000
     19948      6623  TIP3      OH2            40.1748296015       12.6647142534       10.6384353365  SOLV      6612            0.0000000000
     19949      6623  TIP3      H1             39.7499396015       13.4745642534       10.3558953365  SOLV      6612            0.0000000000
     19950      6623  TIP3      H2             41.0791096015       12.7501242534       10.3364153365  SOLV      6612            0.0000000000
     19951      6624  TIP3      OH2            37.5764996015       15.9211042534       10.6859653365  SOLV      6613            0.0000000000
     19952      6624  TIP3      H1             36.8561396015       16.3612042534       10.2347353365  SOLV      6613            0.0000000000
     19953      6624  TIP3      H2             37.2108996015       15.6705742534       11.5343653365  SOLV      6613            0.0000000000
     19954      6625  TIP3      OH2            40.0437596015       15.5214942534        9.7156853365  SOLV      6614            0.0000000000
     19955      6625  TIP3      H1             39.1789796015       15.5933442534       10.1196953365  SOLV      6614            0.0000000000
     19956      6625  TIP3      H2             39.9886596015       16.0682242534        8.9319353365  SOLV      6614            0.0000000000
     19957      6626  TIP3      OH2            36.9913096015       14.5443542534        7.5961453365  SOLV      6615            0.0000000000
     19958      6626  TIP3      H1             36.9729096015       14.1188642534        8.4533753365  SOLV      6615            0.0000000000
     19959      6626  TIP3      H2             37.7960996015       14.2258542534        7.1873653365  SOLV      6615            0.0000000000
     19960      6627  TIP3      OH2            39.1326196015       13.2542242534        6.2511353365  SOLV      6616            0.0000000000
     19961      6627  TIP3      H1             38.9136896015       12.3379642534        6.4207353365  SOLV      6616            0.0000000000
     19962      6627  TIP3      H2             39.9568396015       13.3942642534        6.7172753365  SOLV      6616            0.0000000000
     19963      6628  TIP3      OH2            37.5049896015       -1.9777557466        4.0662553365  SOLV      6617            0.0000000000
     19964      6628  TIP3      H1             36.7279696015       -2.2122657466        3.5588453365  SOLV      6617            0.0000000000
     19965      6628  TIP3      H2             38.0353496015       -2.7745457466        4.0750553365  SOLV      6617            0.0000000000
     19966      6629  TIP3      OH2            36.3413296015       -2.1799457466       -0.1301346635  SOLV      6618            0.0000000000
     19967      6629  TIP3      H1             36.7803996015       -1.5688957466       -0.7217846635  SOLV      6618            0.0000000000
     19968      6629  TIP3      H2             35.7075696015       -1.6415357466        0.3438653365  SOLV      6618            0.0000000000
     19969      6630  TIP3      OH2            36.2422796015       13.7682742534        0.7673753365  SOLV      6619            0.0000000000
     19970      6630  TIP3      H1             35.5572696015       13.7301642534        0.0998853365  SOLV      6619            0.0000000000
     19971      6630  TIP3      H2             36.2459996015       14.6810342534        1.0555853365  SOLV      6619            0.0000000000
     19972      6631  TIP3      OH2            38.2022396015       -0.2637957466       -1.6877246635  SOLV      6620            0.0000000000
     19973      6631  TIP3      H1             38.6935796015       -0.8935557466       -2.2151746635  SOLV      6620            0.0000000000
     19974      6631  TIP3      H2             38.8258696015        0.0321442534       -1.0246046635  SOLV      6620            0.0000000000
     19975      6632  TIP3      OH2            37.4627896015       -1.4635657466       13.5838753365  SOLV      6621            0.0000000000
     19976      6632  TIP3      H1             37.0966096015       -2.2293057466       14.0263453365  SOLV      6621            0.0000000000
     19977      6632  TIP3      H2             38.3756396015       -1.4345457466       13.8703853365  SOLV      6621            0.0000000000
     19978      6633  TIP3      OH2            38.0603996015       14.6883542534       -2.2074146635  SOLV      6622            0.0000000000
     19979      6633  TIP3      H1             37.7928596015       14.9746442534       -1.3341046635  SOLV      6622            0.0000000000
     19980      6633  TIP3      H2             38.8316596015       14.1422742534       -2.0551646635  SOLV      6622            0.0000000000
     19981      6634  TIP3      OH2           -28.8407503985       26.0344742534        4.0250053365  SOLV      6623            0.0000000000
     19982      6634  TIP3      H1            -28.7516403985       26.9782942534        3.8927153365  SOLV      6623            0.0000000000
     19983      6634  TIP3      H2            -29.4789903985       25.7591142534        3.3669453365  SOLV      6623            0.0000000000
     19984      6635  TIP3      OH2           -29.9076203985       25.2895442534        7.4438253365  SOLV      6624            0.0000000000
     19985      6635  TIP3      H1            -29.9458703985       24.6431742534        8.1487853365  SOLV      6624            0.0000000000
     19986      6635  TIP3      H2            -30.2299703985       24.8229842534        6.6726953365  SOLV      6624            0.0000000000
     19987      6636  TIP3      OH2           -26.2016003985       28.2285842534        5.7453353365  SOLV      6625            0.0000000000
     19988      6636  TIP3      H1            -26.6423303985       27.5081842534        6.1958953365  SOLV      6625            0.0000000000
     19989      6636  TIP3      H2            -26.2146303985       28.9493042534        6.3751053365  SOLV      6625            0.0000000000
     19990      6637  TIP3      OH2           -22.8552003985       19.3232142534        8.7105453365  SOLV      6626            0.0000000000
     19991      6637  TIP3      H1            -22.8059803985       19.9333342534        9.4464553365  SOLV      6626            0.0000000000
     19992      6637  TIP3      H2            -22.4296903985       19.7843042534        7.9876553365  SOLV      6626            0.0000000000
     19993      6638  TIP3      OH2           -28.3774803985       22.1159242534        8.1774053365  SOLV      6627            0.0000000000
     19994      6638  TIP3      H1            -28.2348903985       21.1696242534        8.1975653365  SOLV      6627            0.0000000000
     19995      6638  TIP3      H2            -28.4835803985       22.3229042534        7.2488953365  SOLV      6627            0.0000000000
     19996      6639  TIP3      OH2           -27.5003803985       20.3481242534        3.8507153365  SOLV      6628            0.0000000000
     19997      6639  TIP3      H1            -26.8539503985       20.0194442534        4.4754753365  SOLV      6628            0.0000000000
     19998      6639  TIP3      H2            -26.9904403985       20.8660242534        3.2278553365  SOLV      6628            0.0000000000
     19999      6640  TIP3      OH2           -22.4637403985       20.8011342534       10.9465253365  SOLV      6629            0.0000000000
     20000      6640  TIP3      H1            -23.1522803985       21.4592042534       10.8511853365  SOLV      6629            0.0000000000
     20001      6640  TIP3      H2            -22.4482803985       20.6039242534       11.8830653365  SOLV      6629            0.0000000000
     20002      6641  TIP3      OH2           -25.7365403985       19.6390542534        5.8313053365  SOLV      6630            0.0000000000
     20003      6641  TIP3      H1            -25.9517403985       18.8733942534        6.3639053365  SOLV      6630            0.0000000000
     20004      6641  TIP3      H2            -25.0808003985       20.1115142534        6.3441553365  SOLV      6630            0.0000000000
     20005      6642  TIP3      OH2           -25.6898303985       30.0676542534        8.0932653365  SOLV      6631            0.0000000000
     20006      6642  TIP3      H1            -26.6314603985       30.1260442534        8.2549553365  SOLV      6631            0.0000000000
     20007      6642  TIP3      H2            -25.4132203985       30.9737042534        7.9562353365  SOLV      6631            0.0000000000
     20008      6643  TIP3      OH2           -25.3891303985       18.3541842534        9.5106553365  SOLV      6632            0.0000000000
     20009      6643  TIP3      H1            -26.1252103985       18.9648942534        9.4727853365  SOLV      6632            0.0000000000
     20010      6643  TIP3      H2            -24.7057303985       18.7690842534        8.9842953365  SOLV      6632            0.0000000000
     20011      6644  TIP3      OH2           -32.3859903985       16.4409142534        6.9764553365  SOLV      6633            0.0000000000
     20012      6644  TIP3      H1            -32.5035703985       15.4925142534        6.9222853365  SOLV      6633            0.0000000000
     20013      6644  TIP3      H2            -33.2409803985       16.7735242534        7.2495653365  SOLV      6633            0.0000000000
     20014      6645  TIP3      OH2           -27.4377103985       31.8490042534        4.7184253365  SOLV      6634            0.0000000000
     20015      6645  TIP3      H1            -27.0124803985       31.1417942534        4.2333853365  SOLV      6634            0.0000000000
     20016      6645  TIP3      H2            -27.1207103985       32.6502742534        4.3016453365  SOLV      6634            0.0000000000
     20017      6646  TIP3      OH2           -26.2780603985       29.7498542534        3.2270853365  SOLV      6635            0.0000000000
     20018      6646  TIP3      H1            -26.5355803985       29.0598642534        2.6156753365  SOLV      6635            0.0000000000
     20019      6646  TIP3      H2            -26.2069803985       29.3069742534        4.0726753365  SOLV      6635            0.0000000000
     20020      6647  TIP3      OH2           -24.5920403985       28.3165242534       11.7044353365  SOLV      6636            0.0000000000
     20021      6647  TIP3      H1            -24.4524103985       27.7247742534       10.9651353365  SOLV      6636            0.0000000000
     20022      6647  TIP3      H2            -24.4247603985       29.1891142534       11.3483153365  SOLV      6636            0.0000000000
     20023      6648  TIP3      OH2           -30.1195003985       25.2784742534        1.4770353365  SOLV      6637            0.0000000000
     20024      6648  TIP3      H1            -30.8309503985       25.8134442534        1.1250853365  SOLV      6637            0.0000000000
     20025      6648  TIP3      H2            -29.4285403985       25.3336842534        0.8169253365  SOLV      6637            0.0000000000
     20026      6649  TIP3      OH2           -30.0655803985       23.7359042534       -1.4844646635  SOLV      6638            0.0000000000
     20027      6649  TIP3      H1            -29.3645903985       23.7585942534       -0.8330646635  SOLV      6638            0.0000000000
     20028      6649  TIP3      H2            -29.7632903985       23.1078742534       -2.1405346635  SOLV      6638            0.0000000000
     20029      6650  TIP3      OH2           -22.7501103985       24.6563242534        9.7704753365  SOLV      6639            0.0000000000
     20030      6650  TIP3      H1            -23.4027003985       25.3508842534        9.8595653365  SOLV      6639            0.0000000000
     20031      6650  TIP3      H2            -22.2850803985       24.8664142534        8.9606353365  SOLV      6639            0.0000000000
     20032      6651  TIP3      OH2           -26.7137303985       25.4878042534        2.4286253365  SOLV      6640            0.0000000000
     20033      6651  TIP3      H1            -27.4456303985       25.7161742534        3.0016853365  SOLV      6640            0.0000000000
     20034      6651  TIP3      H2            -26.2665103985       24.7740742534        2.8833753365  SOLV      6640            0.0000000000
     20035      6652  TIP3      OH2           -26.8163803985       23.6620642534       11.4963253365  SOLV      6641            0.0000000000
     20036      6652  TIP3      H1            -26.7364703985       24.4255042534       12.0681753365  SOLV      6641            0.0000000000
     20037      6652  TIP3      H2            -27.4176103985       23.9413042534       10.8058353365  SOLV      6641            0.0000000000
     20038      6653  TIP3      OH2           -27.8427803985       24.6500942534        0.1137453365  SOLV      6642            0.0000000000
     20039      6653  TIP3      H1            -27.2632303985       24.8001242534        0.8606353365  SOLV      6642            0.0000000000
     20040      6653  TIP3      H2            -27.4287803985       25.1208342534       -0.6096146635  SOLV      6642            0.0000000000
     20041      6654  TIP3      OH2           -24.1439403985       16.4001342534       -0.0732846635  SOLV      6643            0.0000000000
     20042      6654  TIP3      H1            -25.0438703985       16.5390342534        0.2217753365  SOLV      6643            0.0000000000
     20043      6654  TIP3      H2            -23.8921003985       17.2315942534       -0.4751146635  SOLV      6643            0.0000000000
     20044      6655  TIP3      OH2           -22.9548003985       30.7663742534       -1.6968946635  SOLV      6644            0.0000000000
     20045      6655  TIP3      H1            -22.8814503985       31.7053942534       -1.5263646635  SOLV      6644            0.0000000000
     20046      6655  TIP3      H2            -22.0492903985       30.4612342534       -1.7531646635  SOLV      6644            0.0000000000
     20047      6656  TIP3      OH2           -22.0369603985       30.9971242534       13.2817753365  SOLV      6645            0.0000000000
     20048      6656  TIP3      H1            -22.0862803985       30.0419342534       13.2445353365  SOLV      6645            0.0000000000
     20049      6656  TIP3      H2            -22.8637303985       31.2646542534       13.6831553365  SOLV      6645            0.0000000000
     20050      6657  TIP3      OH2           -27.5423803985       33.4974342534       -1.0337846635  SOLV      6646            0.0000000000
     20051      6657  TIP3      H1            -27.1675403985       32.7530442534       -1.5045246635  SOLV      6646            0.0000000000
     20052      6657  TIP3      H2            -27.5380103985       33.2274942534       -0.1154546635  SOLV      6646            0.0000000000
     20053      6658  TIP3      OH2           -24.8849803985       22.4903742534       13.7619953365  SOLV      6647            0.0000000000
     20054      6658  TIP3      H1            -25.2923003985       22.9709342534       13.0413253365  SOLV      6647            0.0000000000
     20055      6658  TIP3      H2            -24.8444103985       21.5849742534       13.4540753365  SOLV      6647            0.0000000000
     20056      6659  TIP3      OH2           -30.4544503985       17.0664042534       11.1287853365  SOLV      6648            0.0000000000
     20057      6659  TIP3      H1            -30.0341403985       16.6511142534       11.8818453365  SOLV      6648            0.0000000000
     20058      6659  TIP3      H2            -31.3874903985       16.8877342534       11.2459853365  SOLV      6648            0.0000000000
     20059      6660  TIP3      OH2           -27.1279603985       20.8219242534       11.9822353365  SOLV      6649            0.0000000000
     20060      6660  TIP3      H1            -27.6420103985       20.6961442534       12.7798353365  SOLV      6649            0.0000000000
     20061      6660  TIP3      H2            -27.2834903985       21.7342342534       11.7378553365  SOLV      6649            0.0000000000
     20062      6661  TIP3      OH2           -26.3654703985       25.6829242534       -2.2564646635  SOLV      6650            0.0000000000
     20063      6661  TIP3      H1            -26.3233903985       25.4603142534       -3.1864646635  SOLV      6650            0.0000000000
     20064      6661  TIP3      H2            -25.5162603985       26.0816342534       -2.0664746635  SOLV      6650            0.0000000000
     20065      6662  TIP3      OH2           -29.4937603985       22.9468542534        2.5781853365  SOLV      6651            0.0000000000
     20066      6662  TIP3      H1            -29.9027303985       23.7617142534        2.2866653365  SOLV      6651            0.0000000000
     20067      6662  TIP3      H2            -28.7731403985       22.8068642534        1.9638953365  SOLV      6651            0.0000000000
     20068      6663  TIP3      OH2           -30.3916003985       23.1224942534       14.0662553365  SOLV      6652            0.0000000000
     20069      6663  TIP3      H1            -30.9542203985       22.4176542534       14.3870353365  SOLV      6652            0.0000000000
     20070      6663  TIP3      H2            -29.5652603985       23.0016842534       14.5340153365  SOLV      6652            0.0000000000
     20071      6664  TIP3      OH2           -28.4889903985       22.3928942534        5.3921553365  SOLV      6653            0.0000000000
     20072      6664  TIP3      H1            -28.6845403985       22.9985742534        4.6772153365  SOLV      6653            0.0000000000
     20073      6664  TIP3      H2            -28.3077303985       21.5594142534        4.9577853365  SOLV      6653            0.0000000000
     20074      6665  TIP3      OH2           -29.2250703985       24.0310242534       10.0633953365  SOLV      6654            0.0000000000
     20075      6665  TIP3      H1            -28.9015903985       23.3999942534        9.4204453365  SOLV      6654            0.0000000000
     20076      6665  TIP3      H2            -29.6651403985       23.4962442534       10.7241353365  SOLV      6654            0.0000000000
     20077      6666  TIP3      OH2           -28.0425903985       19.1932042534        8.1116953365  SOLV      6655            0.0000000000
     20078      6666  TIP3      H1            -28.7194303985       19.3245142534        8.7756653365  SOLV      6655            0.0000000000
     20079      6666  TIP3      H2            -28.5281003985       19.0381542534        7.3014653365  SOLV      6655            0.0000000000
     20080      6667  TIP3      OH2           -24.7550803985       34.8647442534       14.3884553365  SOLV      6656            0.0000000000
     20081      6667  TIP3      H1            -24.5552103985       35.2889342534       13.5539853365  SOLV      6656            0.0000000000
     20082      6667  TIP3      H2            -24.0997103985       35.2085642534       14.9954953365  SOLV      6656            0.0000000000
     20083      6668  TIP3      OH2           -31.1278103985       22.7458742534        6.7344753365  SOLV      6657            0.0000000000
     20084      6668  TIP3      H1            -30.5634703985       22.1995342534        6.1874353365  SOLV      6657            0.0000000000
     20085      6668  TIP3      H2            -31.2754703985       22.2240642534        7.5232353365  SOLV      6657            0.0000000000
     20086      6669  TIP3      OH2           -24.8070703985       26.4800742534        9.6199153365  SOLV      6658            0.0000000000
     20087      6669  TIP3      H1            -24.1651903985       26.9367042534        9.0761353365  SOLV      6658            0.0000000000
     20088      6669  TIP3      H2            -25.6373803985       26.5933142534        9.1573253365  SOLV      6658            0.0000000000
     20089      6670  TIP3      OH2           -28.0592803985       20.1612442534       -0.9675846635  SOLV      6659            0.0000000000
     20090      6670  TIP3      H1            -28.9978603985       20.2728042534       -1.1187046635  SOLV      6659            0.0000000000
     20091      6670  TIP3      H2            -27.7620703985       21.0179342534       -0.6610146635  SOLV      6659            0.0000000000
     20092      6671  TIP3      OH2           -27.3409303985       22.0285142534        0.6931553365  SOLV      6660            0.0000000000
     20093      6671  TIP3      H1            -26.4490303985       21.8910142534        1.0122753365  SOLV      6660            0.0000000000
     20094      6671  TIP3      H2            -27.2845703985       22.8191242534        0.1565053365  SOLV      6660            0.0000000000
     20095      6672  TIP3      OH2           -22.4560603985       22.2379242534        0.3878253365  SOLV      6661            0.0000000000
     20096      6672  TIP3      H1            -23.0104303985       21.8417242534       -0.2844246635  SOLV      6661            0.0000000000
     20097      6672  TIP3      H2            -22.3557003985       23.1484442534        0.1101553365  SOLV      6661            0.0000000000
     20098      6673  TIP3      OH2           -22.4928603985       28.0380942534       13.2249753365  SOLV      6662            0.0000000000
     20099      6673  TIP3      H1            -23.3440103985       28.2764742534       12.8576153365  SOLV      6662            0.0000000000
     20100      6673  TIP3      H2            -21.9025203985       28.0214142534       12.4716853365  SOLV      6662            0.0000000000
     20101      6674  TIP3      OH2           -24.1608903985       31.0239642534        0.8530353365  SOLV      6663            0.0000000000
     20102      6674  TIP3      H1            -24.5337803985       30.1983442534        1.1620953365  SOLV      6663            0.0000000000
     20103      6674  TIP3      H2            -23.8835403985       30.8409042534       -0.0446246635  SOLV      6663            0.0000000000
     20104      6675  TIP3      OH2           -27.0005003985       25.8319142534        7.8742253365  SOLV      6664            0.0000000000
     20105      6675  TIP3      H1            -27.9288103985       25.6001042534        7.8471553365  SOLV      6664            0.0000000000
     20106      6675  TIP3      H2            -26.5493903985       25.0548942534        7.5441053365  SOLV      6664            0.0000000000
     20107      6676  TIP3      OH2           -28.9712203985       28.0714942534        9.5991953365  SOLV      6665            0.0000000000
     20108      6676  TIP3      H1            -29.3970903985       27.8436642534       10.4255953365  SOLV      6665            0.0000000000
     20109      6676  TIP3      H2            -28.3906403985       27.3326742534        9.4167253365  SOLV      6665            0.0000000000
     20110      6677  TIP3      OH2           -26.7683303985       29.0005442534       -1.3269046635  SOLV      6666            0.0000000000
     20111      6677  TIP3      H1            -26.4150203985       28.6205242534       -0.5225546635  SOLV      6666            0.0000000000
     20112      6677  TIP3      H2            -27.7169803985       28.9070242534       -1.2399746635  SOLV      6666            0.0000000000
     20113      6678  TIP3      OH2           -26.3128003985       32.6234442534       12.0686753365  SOLV      6667            0.0000000000
     20114      6678  TIP3      H1            -26.9144803985       32.0677342534       11.5733053365  SOLV      6667            0.0000000000
     20115      6678  TIP3      H2            -26.0314303985       33.2904242534       11.4424153365  SOLV      6667            0.0000000000
     20116      6679  TIP3      OH2           -22.2648903985       33.4797942534       -1.1258846635  SOLV      6668            0.0000000000
     20117      6679  TIP3      H1            -21.5211003985       34.0658442534       -1.2657246635  SOLV      6668            0.0000000000
     20118      6679  TIP3      H2            -22.9590803985       34.0483742534       -0.7926446635  SOLV      6668            0.0000000000
     20119      6680  TIP3      OH2           -25.9024003985       27.6727442534        0.8998853365  SOLV      6669            0.0000000000
     20120      6680  TIP3      H1            -26.1796403985       26.9446742534        1.4559953365  SOLV      6669            0.0000000000
     20121      6680  TIP3      H2            -24.9751003985       27.7919442534        1.1051453365  SOLV      6669            0.0000000000
     20122      6681  TIP3      OH2           -29.4558703985       19.5972442534       10.3657953365  SOLV      6670            0.0000000000
     20123      6681  TIP3      H1            -28.7570803985       19.6711142534       11.0157653365  SOLV      6670            0.0000000000
     20124      6681  TIP3      H2            -29.8367303985       18.7327442534       10.5200853365  SOLV      6670            0.0000000000
     20125      6682  TIP3      OH2           -28.6713803985       19.2494142534        1.4630253365  SOLV      6671            0.0000000000
     20126      6682  TIP3      H1            -28.4515503985       19.7209542534        0.6595653365  SOLV      6671            0.0000000000
     20127      6682  TIP3      H2            -28.1129803985       19.6436742534        2.1330853365  SOLV      6671            0.0000000000
     20128      6683  TIP3      OH2           -31.4713903985       20.9772942534        2.2978653365  SOLV      6672            0.0000000000
     20129      6683  TIP3      H1            -30.6591303985       21.4816142534        2.3440353365  SOLV      6672            0.0000000000
     20130      6683  TIP3      H2            -31.7160903985       20.8322642534        3.2118253365  SOLV      6672            0.0000000000
     20131      6684  TIP3      OH2           -30.9357503985       21.9635642534       11.4825253365  SOLV      6673            0.0000000000
     20132      6684  TIP3      H1            -30.8167203985       22.5371042534       12.2395653365  SOLV      6673            0.0000000000
     20133      6684  TIP3      H2            -30.2802903985       21.2755042534       11.5973053365  SOLV      6673            0.0000000000
     20134      6685  TIP3      OH2           -30.5877203985       18.0585942534        3.2359753365  SOLV      6674            0.0000000000
     20135      6685  TIP3      H1            -30.9343703985       18.6756542534        3.8804053365  SOLV      6674            0.0000000000
     20136      6685  TIP3      H2            -29.9290303985       18.5591642534        2.7545253365  SOLV      6674            0.0000000000
     20137      6686  TIP3      OH2           -24.7311703985       19.8705942534       12.3174953365  SOLV      6675            0.0000000000
     20138      6686  TIP3      H1            -25.6475903985       20.1327642534       12.2298653365  SOLV      6675            0.0000000000
     20139      6686  TIP3      H2            -24.3956703985       19.8674942534       11.4210253365  SOLV      6675            0.0000000000
     20140      6687  TIP3      OH2           -26.1290703985       23.6206942534        6.4132253365  SOLV      6676            0.0000000000
     20141      6687  TIP3      H1            -26.9266303985       23.2057142534        6.0847253365  SOLV      6676            0.0000000000
     20142      6687  TIP3      H2            -25.6839603985       22.9300642534        6.9042753365  SOLV      6676            0.0000000000
     20143      6688  TIP3      OH2           -25.0426103985       32.8769442534        8.0355753365  SOLV      6677            0.0000000000
     20144      6688  TIP3      H1            -25.1981803985       33.5553842534        7.3785053365  SOLV      6677            0.0000000000
     20145      6688  TIP3      H2            -24.1099703985       32.9488742534        8.2386353365  SOLV      6677            0.0000000000
     20146      6689  TIP3      OH2           -28.1544603985       30.8473442534       14.6126653365  SOLV      6678            0.0000000000
     20147      6689  TIP3      H1            -28.5055103985       29.9906442534       14.8557053365  SOLV      6678            0.0000000000
     20148      6689  TIP3      H2            -27.4281403985       30.9900142534       15.2195653365  SOLV      6678            0.0000000000
     20149      6690  TIP3      OH2           -26.0350803985       31.7922842534       -2.5075046635  SOLV      6679            0.0000000000
     20150      6690  TIP3      H1            -25.7520403985       30.9978042534       -2.0548146635  SOLV      6679            0.0000000000
     20151      6690  TIP3      H2            -25.2952903985       32.0253842534       -3.0683946635  SOLV      6679            0.0000000000
     20152      6691  TIP3      OH2           -27.0315903985       27.2437442534       12.0333953365  SOLV      6680            0.0000000000
     20153      6691  TIP3      H1            -26.2861103985       27.8321142534       11.9137953365  SOLV      6680            0.0000000000
     20154      6691  TIP3      H2            -27.7889103985       27.8257142534       12.0967053365  SOLV      6680            0.0000000000
     20155      6692  TIP3      OH2           -29.6222203985       26.0386342534       15.2892253365  SOLV      6681            0.0000000000
     20156      6692  TIP3      H1            -28.6691003985       26.1225442534       15.2618253365  SOLV      6681            0.0000000000
     20157      6692  TIP3      H2            -29.7827603985       25.3268142534       15.9087153365  SOLV      6681            0.0000000000
     20158      6693  TIP3      OH2           -23.4701003985       26.2719942534       -2.6360846635  SOLV      6682            0.0000000000
     20159      6693  TIP3      H1            -23.7436203985       25.8475442534       -3.4492546635  SOLV      6682            0.0000000000
     20160      6693  TIP3      H2            -23.4306903985       27.2034442534       -2.8530446635  SOLV      6682            0.0000000000
     20161      6694  TIP3      OH2           -27.8926403985       22.5465642534       15.8548453365  SOLV      6683            0.0000000000
     20162      6694  TIP3      H1            -27.7005103985       21.6155042534       15.7432953365  SOLV      6683            0.0000000000
     20163      6694  TIP3      H2            -27.0350103985       22.9715142534       15.8443853365  SOLV      6683            0.0000000000
     20164      6695  TIP3      OH2           -26.5759203985       25.3350842534       13.9321153365  SOLV      6684            0.0000000000
     20165      6695  TIP3      H1            -26.8574203985       26.0445442534       13.3544953365  SOLV      6684            0.0000000000
     20166      6695  TIP3      H2            -25.6334903985       25.2623842534       13.7812353365  SOLV      6684            0.0000000000
     20167      6696  TIP3      OH2           -29.1048403985       20.1972242534       13.6573453365  SOLV      6685            0.0000000000
     20168      6696  TIP3      H1            -30.0523003985       20.2291942534       13.7896753365  SOLV      6685            0.0000000000
     20169      6696  TIP3      H2            -28.7921703985       19.5719342534       14.3111653365  SOLV      6685            0.0000000000
     20170      6697  TIP3      OH2           -27.4706903985       18.8313342534       15.6625353365  SOLV      6686            0.0000000000
     20171      6697  TIP3      H1            -27.5675103985       17.8790642534       15.6567253365  SOLV      6686            0.0000000000
     20172      6697  TIP3      H2            -27.7923803985       19.1000142534       16.5230853365  SOLV      6686            0.0000000000
     20173      6698  TIP3      OH2           -32.8627403985       16.0420742534       13.6894353365  SOLV      6687            0.0000000000
     20174      6698  TIP3      H1            -32.1509003985       15.4022942534       13.6753453365  SOLV      6687            0.0000000000
     20175      6698  TIP3      H2            -32.9637003985       16.3089042534       12.7757453365  SOLV      6687            0.0000000000
     20176      6699  TIP3      OH2           -32.5089903985       17.7249142534       15.7430653365  SOLV      6688            0.0000000000
     20177      6699  TIP3      H1            -32.6407703985       17.2492942534       14.9229153365  SOLV      6688            0.0000000000
     20178      6699  TIP3      H2            -33.1082503985       18.4692742534       15.6877753365  SOLV      6688            0.0000000000
     20179      6700  TIP3      OH2           -22.3268103985       33.5275142534        8.2647653365  SOLV      6689            0.0000000000
     20180      6700  TIP3      H1            -22.3481403985       33.7123542534        9.2037053365  SOLV      6689            0.0000000000
     20181      6700  TIP3      H2            -21.6361903985       34.0959142534        7.9239053365  SOLV      6689            0.0000000000
     20182      6701  TIP3      OH2           -22.7635203985       33.0946242534       11.1866753365  SOLV      6690            0.0000000000
     20183      6701  TIP3      H1            -23.2506503985       32.3590342534       10.8154153365  SOLV      6690            0.0000000000
     20184      6701  TIP3      H2            -22.2142503985       32.7010142534       11.8646153365  SOLV      6690            0.0000000000
     20185      6702  TIP3      OH2           -24.3127903985       28.8844342534       15.8247053365  SOLV      6691            0.0000000000
     20186      6702  TIP3      H1            -25.1786803985       28.7794042534       16.2189353365  SOLV      6691            0.0000000000
     20187      6702  TIP3      H2            -23.9362003985       29.6427642534       16.2711753365  SOLV      6691            0.0000000000
     20188      6703  TIP3      OH2           -23.0118203985       27.1408042534        1.3389553365  SOLV      6692            0.0000000000
     20189      6703  TIP3      H1            -22.1616803985       27.5618942534        1.4661153365  SOLV      6692            0.0000000000
     20190      6703  TIP3      H2            -23.0063103985       26.4008142534        1.9460953365  SOLV      6692            0.0000000000
     20191      6704  TIP3      OH2           -22.6172603985       25.1945442534        3.1625253365  SOLV      6693            0.0000000000
     20192      6704  TIP3      H1            -23.3438003985       24.7148042534        3.5602853365  SOLV      6693            0.0000000000
     20193      6704  TIP3      H2            -22.0359303985       25.4000142534        3.8946853365  SOLV      6693            0.0000000000
     20194      6705  TIP3      OH2           -22.8581403985       27.9792942534        8.1102853365  SOLV      6694            0.0000000000
     20195      6705  TIP3      H1            -22.0247203985       27.6012942534        7.8296453365  SOLV      6694            0.0000000000
     20196      6705  TIP3      H2            -22.7461103985       28.9224142534        7.9911953365  SOLV      6694            0.0000000000
     20197      6706  TIP3      OH2           -24.3719103985       30.8570442534       10.4171253365  SOLV      6695            0.0000000000
     20198      6706  TIP3      H1            -25.0193803985       31.1821942534       11.0426453365  SOLV      6695            0.0000000000
     20199      6706  TIP3      H2            -24.8895103985       30.4168142534        9.7429553365  SOLV      6695            0.0000000000
     20200      6707  TIP3      OH2           -22.3489503985       25.0953942534       -0.4463446635  SOLV      6696            0.0000000000
     20201      6707  TIP3      H1            -22.8708403985       25.4518042534       -1.1652546635  SOLV      6696            0.0000000000
     20202      6707  TIP3      H2            -22.3820303985       25.7701742534        0.2317453365  SOLV      6696            0.0000000000
     20203      6708  TIP3      OH2           -24.0000503985       22.3349542534       -1.8956346635  SOLV      6697            0.0000000000
     20204      6708  TIP3      H1            -23.9036103985       23.0016542534       -2.5756646635  SOLV      6697            0.0000000000
     20205      6708  TIP3      H2            -24.1400903985       21.5195842534       -2.3770846635  SOLV      6697            0.0000000000
     20206      6709  TIP3      OH2           -24.8305803985       23.7151942534        3.7253953365  SOLV      6698            0.0000000000
     20207      6709  TIP3      H1            -24.9807003985       22.7700542534        3.7051753365  SOLV      6698            0.0000000000
     20208      6709  TIP3      H2            -25.1841303985       23.9963342534        4.5693053365  SOLV      6698            0.0000000000
     20209      6710  TIP3      OH2           -23.9742903985       25.6855242534       13.3642253365  SOLV      6699            0.0000000000
     20210      6710  TIP3      H1            -23.3915603985       24.9507542534       13.5559453365  SOLV      6699            0.0000000000
     20211      6710  TIP3      H2            -23.4103603985       26.4575542534       13.4108053365  SOLV      6699            0.0000000000
     20212      6711  TIP3      OH2           -22.4775803985       23.5881042534       14.0487653365  SOLV      6700            0.0000000000
     20213      6711  TIP3      H1            -23.3409103985       23.2093142534       13.8832353365  SOLV      6700            0.0000000000
     20214      6711  TIP3      H2            -21.8732103985       22.8495842534       13.9743453365  SOLV      6700            0.0000000000
     20215      6712  TIP3      OH2           -24.7526703985       19.7429342534       -2.7780846635  SOLV      6701            0.0000000000
     20216      6712  TIP3      H1            -24.1420903985       19.3716142534       -2.1412646635  SOLV      6701            0.0000000000
     20217      6712  TIP3      H2            -25.5895203985       19.3216242534       -2.5820846635  SOLV      6701            0.0000000000
     20218      6713  TIP3      OH2           -25.1201003985       21.2977742534        2.1879053365  SOLV      6702            0.0000000000
     20219      6713  TIP3      H1            -24.8403903985       20.3908142534        2.3120753365  SOLV      6702            0.0000000000
     20220      6713  TIP3      H2            -24.3609303985       21.7319242534        1.7988253365  SOLV      6702            0.0000000000
     20221      6714  TIP3      OH2           -24.5082703985       21.8795142534        7.6237953365  SOLV      6703            0.0000000000
     20222      6714  TIP3      H1            -23.5754703985       22.0915042534        7.5893953365  SOLV      6703            0.0000000000
     20223      6714  TIP3      H2            -24.7435203985       21.9807242534        8.5460953365  SOLV      6703            0.0000000000
     20224      6715  TIP3      OH2           -24.4790803985       22.6160442534       10.3997353365  SOLV      6704            0.0000000000
     20225      6715  TIP3      H1            -25.3219503985       22.8840842534       10.7657153365  SOLV      6704            0.0000000000
     20226      6715  TIP3      H2            -24.0366503985       23.4382342534       10.1888453365  SOLV      6704            0.0000000000
     20227      6716  TIP3      OH2           -22.1959203985       16.5960642534       15.7532353365  SOLV      6705            0.0000000000
     20228      6716  TIP3      H1            -21.8462203985       15.9424142534       15.1477053365  SOLV      6705            0.0000000000
     20229      6716  TIP3      H2            -22.0489703985       17.4334742534       15.3134953365  SOLV      6705            0.0000000000
     20230      6717  TIP3      OH2           -24.5066203985       18.5607042534        2.2361053365  SOLV      6706            0.0000000000
     20231      6717  TIP3      H1            -24.3241203985       18.1118542534        3.0616053365  SOLV      6706            0.0000000000
     20232      6717  TIP3      H2            -25.1063303985       17.9761442534        1.7725653365  SOLV      6706            0.0000000000
     20233      6718  TIP3      OH2           -22.6762003985       18.7055242534       14.1023653365  SOLV      6707            0.0000000000
     20234      6718  TIP3      H1            -23.5936303985       18.9762342534       14.0667153365  SOLV      6707            0.0000000000
     20235      6718  TIP3      H2            -22.5532603985       18.1703642534       13.3183353365  SOLV      6707            0.0000000000
     20236      6719  TIP3      OH2           -22.6400003985       18.6285142534       -1.2358646635  SOLV      6708            0.0000000000
     20237      6719  TIP3      H1            -22.2277403985       17.9070842534       -1.7110646635  SOLV      6708            0.0000000000
     20238      6719  TIP3      H2            -21.9583503985       19.2979742534       -1.1774346635  SOLV      6708            0.0000000000
     20239      6720  TIP3      OH2           -25.5882103985       33.6174542534        3.8369453365  SOLV      6709            0.0000000000
     20240      6720  TIP3      H1            -24.9359203985       33.2696642534        3.2288553365  SOLV      6709            0.0000000000
     20241      6720  TIP3      H2            -25.0778303985       34.1057742534        4.4829153365  SOLV      6709            0.0000000000
     20242      6721  TIP3      OH2           -23.6756103985       16.7951542534       11.9214453365  SOLV      6710            0.0000000000
     20243      6721  TIP3      H1            -24.4882603985       17.1201842534       11.5339153365  SOLV      6710            0.0000000000
     20244      6721  TIP3      H2            -23.4427603985       16.0350042534       11.3883553365  SOLV      6710            0.0000000000
     20245      6722  TIP3      OH2           -25.7378603985       34.7132542534       10.1310953365  SOLV      6711            0.0000000000
     20246      6722  TIP3      H1            -25.9196603985       35.6291442534        9.9205853365  SOLV      6711            0.0000000000
     20247      6722  TIP3      H2            -25.5610803985       34.3029642534        9.2845553365  SOLV      6711            0.0000000000
     20248      6723  TIP3      OH2           -30.2457603985       18.2442142534        6.2442653365  SOLV      6712            0.0000000000
     20249      6723  TIP3      H1            -30.9200803985       17.6147742534        6.4998453365  SOLV      6712            0.0000000000
     20250      6723  TIP3      H2            -29.6818403985       17.7601042534        5.6410553365  SOLV      6712            0.0000000000
     20251      6724  TIP3      OH2           -25.1030403985       16.3516142534        6.3569753365  SOLV      6713            0.0000000000
     20252      6724  TIP3      H1            -24.4992803985       16.8991542534        5.8550753365  SOLV      6713            0.0000000000
     20253      6724  TIP3      H2            -25.9728403985       16.6706542534        6.1163853365  SOLV      6713            0.0000000000
     20254      6725  TIP3      OH2           -23.3760003985       17.4904842534        4.6900653365  SOLV      6714            0.0000000000
     20255      6725  TIP3      H1            -22.7642503985       16.9760542534        4.1634253365  SOLV      6714            0.0000000000
     20256      6725  TIP3      H2            -22.9936603985       18.3676942534        4.7135053365  SOLV      6714            0.0000000000
     20257      6726  TIP3      OH2           -27.7829103985       16.8349342534        5.5287353365  SOLV      6715            0.0000000000
     20258      6726  TIP3      H1            -27.7067503985       16.9300942534        4.5793353365  SOLV      6715            0.0000000000
     20259      6726  TIP3      H2            -28.0579903985       15.9272242534        5.6576453365  SOLV      6715            0.0000000000
     20260      6727  TIP3      OH2           -26.4296503985       16.8607142534        1.2212353365  SOLV      6716            0.0000000000
     20261      6727  TIP3      H1            -27.1325403985       17.4756342534        1.0113753365  SOLV      6716            0.0000000000
     20262      6727  TIP3      H2            -26.8745103985       16.0233842534        1.3523253365  SOLV      6716            0.0000000000
     20263      6728  TIP3      OH2           -32.1957503985       18.8853542534        0.7693253365  SOLV      6717            0.0000000000
     20264      6728  TIP3      H1            -32.0176203985       18.2386742534        1.4521853365  SOLV      6717            0.0000000000
     20265      6728  TIP3      H2            -32.2491303985       19.7191242534        1.2364353365  SOLV      6717            0.0000000000
     20266      6729  TIP3      OH2           -23.6084103985       33.3967942534        1.8441053365  SOLV      6718            0.0000000000
     20267      6729  TIP3      H1            -23.8027003985       32.6490042534        1.2790653365  SOLV      6718            0.0000000000
     20268      6729  TIP3      H2            -23.6474003985       34.1548042534        1.2608953365  SOLV      6718            0.0000000000
     20269      6730  TIP3      OH2           -27.5669003985       16.0754042534       15.3018653365  SOLV      6719            0.0000000000
     20270      6730  TIP3      H1            -27.4901803985       15.6494742534       16.1556353365  SOLV      6719            0.0000000000
     20271      6730  TIP3      H2            -26.6732403985       16.0888742534       14.9592153365  SOLV      6719            0.0000000000
     20272      6731  TIP3      OH2           -24.3907903985       32.1480342534       13.9942853365  SOLV      6720            0.0000000000
     20273      6731  TIP3      H1            -25.1726003985       31.9618342534       13.4743453365  SOLV      6720            0.0000000000
     20274      6731  TIP3      H2            -24.4628003985       33.0774642534       14.2115353365  SOLV      6720            0.0000000000
     20275      6732  TIP3      OH2            -9.9847503985       26.0344742534        4.0250053365  SOLV      6721            0.0000000000
     20276      6732  TIP3      H1             -9.8956403985       26.9782942534        3.8927153365  SOLV      6721            0.0000000000
     20277      6732  TIP3      H2            -10.6229903985       25.7591142534        3.3669453365  SOLV      6721            0.0000000000
     20278      6733  TIP3      OH2           -11.0516203985       25.2895442534        7.4438253365  SOLV      6722            0.0000000000
     20279      6733  TIP3      H1            -11.0898703985       24.6431742534        8.1487853365  SOLV      6722            0.0000000000
     20280      6733  TIP3      H2            -11.3739703985       24.8229842534        6.6726953365  SOLV      6722            0.0000000000
     20281      6734  TIP3      OH2           -18.6831203985       24.9037542534        9.0368153365  SOLV      6723            0.0000000000
     20282      6734  TIP3      H1            -18.6419103985       24.2780842534        9.7600553365  SOLV      6723            0.0000000000
     20283      6734  TIP3      H2            -17.9803503985       25.5276142534        9.2188553365  SOLV      6723            0.0000000000
     20284      6735  TIP3      OH2            -7.3456003985       28.2285842534        5.7453353365  SOLV      6724            0.0000000000
     20285      6735  TIP3      H1             -7.7863303985       27.5081842534        6.1958953365  SOLV      6724            0.0000000000
     20286      6735  TIP3      H2             -7.3586303985       28.9493042534        6.3751053365  SOLV      6724            0.0000000000
     20287      6736  TIP3      OH2           -17.7598103985       29.3536442534        7.5717253365  SOLV      6725            0.0000000000
     20288      6736  TIP3      H1            -18.1292903985       28.5516942534        7.2021553365  SOLV      6725            0.0000000000
     20289      6736  TIP3      H2            -16.8187003985       29.1851342534        7.6180653365  SOLV      6725            0.0000000000
     20290      6737  TIP3      OH2           -21.1497603985       23.0139042534        2.9646053365  SOLV      6726            0.0000000000
     20291      6737  TIP3      H1            -21.5974203985       23.8597742534        2.9462553365  SOLV      6726            0.0000000000
     20292      6737  TIP3      H2            -21.7106403985       22.4343242534        2.4491153365  SOLV      6726            0.0000000000
     20293      6738  TIP3      OH2           -20.4391503985       25.1758642534        5.0904053365  SOLV      6727            0.0000000000
     20294      6738  TIP3      H1            -20.2258003985       24.4060242534        5.6177053365  SOLV      6727            0.0000000000
     20295      6738  TIP3      H2            -19.7013903985       25.2655342534        4.4871653365  SOLV      6727            0.0000000000
     20296      6739  TIP3      OH2           -10.2340503985       33.3327542534        5.9573753365  SOLV      6728            0.0000000000
     20297      6739  TIP3      H1             -9.6144103985       32.6562242534        5.6842953365  SOLV      6728            0.0000000000
     20298      6739  TIP3      H2            -10.4423103985       33.1148342534        6.8658653365  SOLV      6728            0.0000000000
     20299      6740  TIP3      OH2           -12.6621803985       27.7216842534        7.8499253365  SOLV      6729            0.0000000000
     20300      6740  TIP3      H1            -12.3583903985       27.0358242534        7.2553353365  SOLV      6729            0.0000000000
     20301      6740  TIP3      H2            -11.9407803985       27.8405542534        8.4677253365  SOLV      6729            0.0000000000
     20302      6741  TIP3      OH2            -3.9992003985       19.3232142534        8.7105453365  SOLV      6730            0.0000000000
     20303      6741  TIP3      H1             -3.9499803985       19.9333342534        9.4464553365  SOLV      6730            0.0000000000
     20304      6741  TIP3      H2             -3.5736903985       19.7843042534        7.9876553365  SOLV      6730            0.0000000000
     20305      6742  TIP3      OH2            -9.5214803985       22.1159242534        8.1774053365  SOLV      6731            0.0000000000
     20306      6742  TIP3      H1             -9.3788903985       21.1696242534        8.1975653365  SOLV      6731            0.0000000000
     20307      6742  TIP3      H2             -9.6275803985       22.3229042534        7.2488953365  SOLV      6731            0.0000000000
     20308      6743  TIP3      OH2           -16.3666503985       20.2175642534        5.4498853365  SOLV      6732            0.0000000000
     20309      6743  TIP3      H1            -16.3235403985       21.0774142534        5.0315153365  SOLV      6732            0.0000000000
     20310      6743  TIP3      H2            -16.8242403985       19.6650342534        4.8162053365  SOLV      6732            0.0000000000
     20311      6744  TIP3      OH2            -8.6443803985       20.3481242534        3.8507153365  SOLV      6733            0.0000000000
     20312      6744  TIP3      H1             -7.9979503985       20.0194442534        4.4754753365  SOLV      6733            0.0000000000
     20313      6744  TIP3      H2             -8.1344403985       20.8660242534        3.2278553365  SOLV      6733            0.0000000000
     20314      6745  TIP3      OH2           -19.7465003985       22.6141442534        6.2120253365  SOLV      6734            0.0000000000
     20315      6745  TIP3      H1            -19.0928403985       22.0643142534        6.6440353365  SOLV      6734            0.0000000000
     20316      6745  TIP3      H2            -19.7225703985       22.3400442534        5.2952253365  SOLV      6734            0.0000000000
     20317      6746  TIP3      OH2           -14.5900503985       24.1642742534        5.4271753365  SOLV      6735            0.0000000000
     20318      6746  TIP3      H1            -13.9739503985       23.6378142534        5.9365753365  SOLV      6735            0.0000000000
     20319      6746  TIP3      H2            -15.1761703985       23.5241442534        5.0235353365  SOLV      6735            0.0000000000
     20320      6747  TIP3      OH2            -3.6077403985       20.8011342534       10.9465253365  SOLV      6736            0.0000000000
     20321      6747  TIP3      H1             -4.2962803985       21.4592042534       10.8511853365  SOLV      6736            0.0000000000
     20322      6747  TIP3      H2             -3.5922803985       20.6039242534       11.8830653365  SOLV      6736            0.0000000000
     20323      6748  TIP3      OH2           -17.5564603985       19.1354042534        9.5239653365  SOLV      6737            0.0000000000
     20324      6748  TIP3      H1            -17.7752903985       19.6654642534        8.7575653365  SOLV      6737            0.0000000000
     20325      6748  TIP3      H2            -18.2243703985       19.3619542534       10.1711053365  SOLV      6737            0.0000000000
     20326      6749  TIP3      OH2           -10.1874803985       28.6355142534        3.0678753365  SOLV      6738            0.0000000000
     20327      6749  TIP3      H1            -10.4829703985       28.3127442534        2.2165653365  SOLV      6738            0.0000000000
     20328      6749  TIP3      H2            -10.5117003985       29.5351842534        3.1091353365  SOLV      6738            0.0000000000
     20329      6750  TIP3      OH2           -14.9873203985       26.8109742534        9.8113353365  SOLV      6739            0.0000000000
     20330      6750  TIP3      H1            -15.7274103985       27.4091242534        9.9148553365  SOLV      6739            0.0000000000
     20331      6750  TIP3      H2            -14.2733703985       27.3649342534        9.4956953365  SOLV      6739            0.0000000000
     20332      6751  TIP3      OH2            -6.8805403985       19.6390542534        5.8313053365  SOLV      6740            0.0000000000
     20333      6751  TIP3      H1             -7.0957403985       18.8733942534        6.3639053365  SOLV      6740            0.0000000000
     20334      6751  TIP3      H2             -6.2248003985       20.1115142534        6.3441553365  SOLV      6740            0.0000000000
     20335      6752  TIP3      OH2           -17.9627303985       21.0275842534        7.4761853365  SOLV      6741            0.0000000000
     20336      6752  TIP3      H1            -17.3491003985       21.6603442534        7.8494253365  SOLV      6741            0.0000000000
     20337      6752  TIP3      H2            -17.4506603985       20.5550842534        6.8198753365  SOLV      6741            0.0000000000
     20338      6753  TIP3      OH2           -16.5798903985       28.7752742534       10.5984853365  SOLV      6742            0.0000000000
     20339      6753  TIP3      H1            -16.5851303985       29.6546242534       10.2204153365  SOLV      6742            0.0000000000
     20340      6753  TIP3      H2            -17.4334803985       28.6916842534       11.0234753365  SOLV      6742            0.0000000000
     20341      6754  TIP3      OH2           -20.4588003985       28.4460642534        1.3804153365  SOLV      6743            0.0000000000
     20342      6754  TIP3      H1            -20.7307103985       28.6751642534        0.4917053365  SOLV      6743            0.0000000000
     20343      6754  TIP3      H2            -20.4132303985       29.2839442534        1.8409453365  SOLV      6743            0.0000000000
     20344      6755  TIP3      OH2            -6.8338303985       30.0676542534        8.0932653365  SOLV      6744            0.0000000000
     20345      6755  TIP3      H1             -7.7754603985       30.1260442534        8.2549553365  SOLV      6744            0.0000000000
     20346      6755  TIP3      H2             -6.5572203985       30.9737042534        7.9562353365  SOLV      6744            0.0000000000
     20347      6756  TIP3      OH2            -6.5331303985       18.3541842534        9.5106553365  SOLV      6745            0.0000000000
     20348      6756  TIP3      H1             -7.2692103985       18.9648942534        9.4727853365  SOLV      6745            0.0000000000
     20349      6756  TIP3      H2             -5.8497303985       18.7690842534        8.9842953365  SOLV      6745            0.0000000000
     20350      6757  TIP3      OH2           -13.5299903985       16.4409142534        6.9764553365  SOLV      6746            0.0000000000
     20351      6757  TIP3      H1            -13.6475703985       15.4925142534        6.9222853365  SOLV      6746            0.0000000000
     20352      6757  TIP3      H2            -14.3849803985       16.7735242534        7.2495653365  SOLV      6746            0.0000000000
     20353      6758  TIP3      OH2            -8.5817103985       31.8490042534        4.7184253365  SOLV      6747            0.0000000000
     20354      6758  TIP3      H1             -8.1564803985       31.1417942534        4.2333853365  SOLV      6747            0.0000000000
     20355      6758  TIP3      H2             -8.2647103985       32.6502742534        4.3016453365  SOLV      6747            0.0000000000
     20356      6759  TIP3      OH2            -7.4220603985       29.7498542534        3.2270853365  SOLV      6748            0.0000000000
     20357      6759  TIP3      H1             -7.6795803985       29.0598642534        2.6156753365  SOLV      6748            0.0000000000
     20358      6759  TIP3      H2             -7.3509803985       29.3069742534        4.0726753365  SOLV      6748            0.0000000000
     20359      6760  TIP3      OH2            -5.7360403985       28.3165242534       11.7044353365  SOLV      6749            0.0000000000
     20360      6760  TIP3      H1             -5.5964103985       27.7247742534       10.9651353365  SOLV      6749            0.0000000000
     20361      6760  TIP3      H2             -5.5687603985       29.1891142534       11.3483153365  SOLV      6749            0.0000000000
     20362      6761  TIP3      OH2           -11.2635003985       25.2784742534        1.4770353365  SOLV      6750            0.0000000000
     20363      6761  TIP3      H1            -11.9749503985       25.8134442534        1.1250853365  SOLV      6750            0.0000000000
     20364      6761  TIP3      H2            -10.5725403985       25.3336842534        0.8169253365  SOLV      6750            0.0000000000
     20365      6762  TIP3      OH2           -11.2095803985       23.7359042534       -1.4844646635  SOLV      6751            0.0000000000
     20366      6762  TIP3      H1            -10.5085903985       23.7585942534       -0.8330646635  SOLV      6751            0.0000000000
     20367      6762  TIP3      H2            -10.9072903985       23.1078742534       -2.1405346635  SOLV      6751            0.0000000000
     20368      6763  TIP3      OH2            -3.8941103985       24.6563242534        9.7704753365  SOLV      6752            0.0000000000
     20369      6763  TIP3      H1             -4.5467003985       25.3508842534        9.8595653365  SOLV      6752            0.0000000000
     20370      6763  TIP3      H2             -3.4290803985       24.8664142534        8.9606353365  SOLV      6752            0.0000000000
     20371      6764  TIP3      OH2            -7.8577303985       25.4878042534        2.4286253365  SOLV      6753            0.0000000000
     20372      6764  TIP3      H1             -8.5896303985       25.7161742534        3.0016853365  SOLV      6753            0.0000000000
     20373      6764  TIP3      H2             -7.4105103985       24.7740742534        2.8833753365  SOLV      6753            0.0000000000
     20374      6765  TIP3      OH2            -7.9603803985       23.6620642534       11.4963253365  SOLV      6754            0.0000000000
     20375      6765  TIP3      H1             -7.8804703985       24.4255042534       12.0681753365  SOLV      6754            0.0000000000
     20376      6765  TIP3      H2             -8.5616103985       23.9413042534       10.8058353365  SOLV      6754            0.0000000000
     20377      6766  TIP3      OH2           -16.2123603985       26.1184242534        4.3111253365  SOLV      6755            0.0000000000
     20378      6766  TIP3      H1            -16.5428403985       25.7477642534        3.4928253365  SOLV      6755            0.0000000000
     20379      6766  TIP3      H2            -15.6239503985       25.4478242534        4.6579553365  SOLV      6755            0.0000000000
     20380      6767  TIP3      OH2           -14.8456103985       29.5464842534        6.9923453365  SOLV      6756            0.0000000000
     20381      6767  TIP3      H1            -14.9404803985       28.9677942534        6.2358053365  SOLV      6756            0.0000000000
     20382      6767  TIP3      H2            -14.1162503985       29.1750542534        7.4886253365  SOLV      6756            0.0000000000
     20383      6768  TIP3      OH2           -15.8458103985       24.8869842534        7.9446253365  SOLV      6757            0.0000000000
     20384      6768  TIP3      H1            -15.2805603985       25.0084042534        7.1817453365  SOLV      6757            0.0000000000
     20385      6768  TIP3      H2            -15.5269203985       25.5244842534        8.5834753365  SOLV      6757            0.0000000000
     20386      6769  TIP3      OH2            -9.5365903985       30.3901742534        8.6786753365  SOLV      6758            0.0000000000
     20387      6769  TIP3      H1             -9.7769303985       31.0524842534        9.3265953365  SOLV      6758            0.0000000000
     20388      6769  TIP3      H2             -9.7347703985       29.5556942534        9.1036353365  SOLV      6758            0.0000000000
     20389      6770  TIP3      OH2           -14.9657403985       29.2862542534       12.6618153365  SOLV      6759            0.0000000000
     20390      6770  TIP3      H1            -15.2769903985       30.0685742534       13.1171353365  SOLV      6759            0.0000000000
     20391      6770  TIP3      H2            -15.6157203985       29.1331642534       11.9760153365  SOLV      6759            0.0000000000
     20392      6771  TIP3      OH2            -8.9867803985       24.6500942534        0.1137453365  SOLV      6760            0.0000000000
     20393      6771  TIP3      H1             -8.4072303985       24.8001242534        0.8606353365  SOLV      6760            0.0000000000
     20394      6771  TIP3      H2             -8.5727803985       25.1208342534       -0.6096146635  SOLV      6760            0.0000000000
     20395      6772  TIP3      OH2           -18.0457503985       25.4843642534       11.8903853365  SOLV      6761            0.0000000000
     20396      6772  TIP3      H1            -17.9754303985       26.1350442534       12.5888853365  SOLV      6761            0.0000000000
     20397      6772  TIP3      H2            -18.9365303985       25.5871142534       11.5554753365  SOLV      6761            0.0000000000
     20398      6773  TIP3      OH2           -11.2602903985       31.3869442534        3.5490553365  SOLV      6762            0.0000000000
     20399      6773  TIP3      H1            -10.7865303985       31.6825742534        4.3264753365  SOLV      6762            0.0000000000
     20400      6773  TIP3      H2            -11.8233603985       32.1251042534        3.3160153365  SOLV      6762            0.0000000000
     20401      6774  TIP3      OH2           -16.7261503985       31.3577542534       13.4251953365  SOLV      6763            0.0000000000
     20402      6774  TIP3      H1            -16.7186203985       31.2217242534       12.4777453365  SOLV      6763            0.0000000000
     20403      6774  TIP3      H2            -17.6421103985       31.2405642534       13.6771953365  SOLV      6763            0.0000000000
     20404      6775  TIP3      OH2            -5.2879403985       16.4001342534       -0.0732846635  SOLV      6764            0.0000000000
     20405      6775  TIP3      H1             -6.1878703985       16.5390342534        0.2217753365  SOLV      6764            0.0000000000
     20406      6775  TIP3      H2             -5.0361003985       17.2315942534       -0.4751146635  SOLV      6764            0.0000000000
     20407      6776  TIP3      OH2           -17.2220903985       25.1878542534        1.9004053365  SOLV      6765            0.0000000000
     20408      6776  TIP3      H1            -17.5139603985       25.9560242534        1.4095353365  SOLV      6765            0.0000000000
     20409      6776  TIP3      H2            -17.8965703985       24.5284742534        1.7375453365  SOLV      6765            0.0000000000
     20410      6777  TIP3      OH2            -4.0988003985       30.7663742534       -1.6968946635  SOLV      6766            0.0000000000
     20411      6777  TIP3      H1             -4.0254503985       31.7053942534       -1.5263646635  SOLV      6766            0.0000000000
     20412      6777  TIP3      H2             -3.1932903985       30.4612342534       -1.7531646635  SOLV      6766            0.0000000000
     20413      6778  TIP3      OH2           -21.1290803985       27.5507742534       10.7153853365  SOLV      6767            0.0000000000
     20414      6778  TIP3      H1            -21.6302403985       27.5227142534        9.9003553365  SOLV      6767            0.0000000000
     20415      6778  TIP3      H2            -21.1237103985       26.6450942534       11.0251153365  SOLV      6767            0.0000000000
     20416      6779  TIP3      OH2           -21.3788103985       30.3311542534        7.5994053365  SOLV      6768            0.0000000000
     20417      6779  TIP3      H1            -20.4327503985       30.1868542534        7.5803553365  SOLV      6768            0.0000000000
     20418      6779  TIP3      H2            -21.4911803985       31.1154342534        8.1365253365  SOLV      6768            0.0000000000
     20419      6780  TIP3      OH2            -3.1809603985       30.9971242534       13.2817753365  SOLV      6769            0.0000000000
     20420      6780  TIP3      H1             -3.2302803985       30.0419342534       13.2445353365  SOLV      6769            0.0000000000
     20421      6780  TIP3      H2             -4.0077303985       31.2646542534       13.6831553365  SOLV      6769            0.0000000000
     20422      6781  TIP3      OH2           -12.2025603985       30.5710442534       12.1579153365  SOLV      6770            0.0000000000
     20423      6781  TIP3      H1            -12.1151003985       31.3975042534       12.6328253365  SOLV      6770            0.0000000000
     20424      6781  TIP3      H2            -13.0660503985       30.2414242534       12.4068453365  SOLV      6770            0.0000000000
     20425      6782  TIP3      OH2           -11.7879803985       34.3434142534        1.9639753365  SOLV      6771            0.0000000000
     20426      6782  TIP3      H1            -11.8633803985       34.2221342534        1.0174953365  SOLV      6771            0.0000000000
     20427      6782  TIP3      H2            -11.7551103985       35.2926842534        2.0824353365  SOLV      6771            0.0000000000
     20428      6783  TIP3      OH2           -18.1346003985       33.1321142534        3.7448753365  SOLV      6772            0.0000000000
     20429      6783  TIP3      H1            -17.9825603985       32.7841542534        4.6235253365  SOLV      6772            0.0000000000
     20430      6783  TIP3      H2            -18.9855603985       32.7758442534        3.4895953365  SOLV      6772            0.0000000000
     20431      6784  TIP3      OH2            -8.6863803985       33.4974342534       -1.0337846635  SOLV      6773            0.0000000000
     20432      6784  TIP3      H1             -8.3115403985       32.7530442534       -1.5045246635  SOLV      6773            0.0000000000
     20433      6784  TIP3      H2             -8.6820103985       33.2274942534       -0.1154546635  SOLV      6773            0.0000000000
     20434      6785  TIP3      OH2            -9.0175703985       33.4231442534        1.7154353365  SOLV      6774            0.0000000000
     20435      6785  TIP3      H1             -9.9525903985       33.5233342534        1.8941353365  SOLV      6774            0.0000000000
     20436      6785  TIP3      H2             -8.7373803985       32.7137442534        2.2937553365  SOLV      6774            0.0000000000
     20437      6786  TIP3      OH2            -6.0289803985       22.4903742534       13.7619953365  SOLV      6775            0.0000000000
     20438      6786  TIP3      H1             -6.4363003985       22.9709342534       13.0413253365  SOLV      6775            0.0000000000
     20439      6786  TIP3      H2             -5.9884103985       21.5849742534       13.4540753365  SOLV      6775            0.0000000000
     20440      6787  TIP3      OH2           -18.8800303985       28.8743142534       11.7586653365  SOLV      6776            0.0000000000
     20441      6787  TIP3      H1            -18.6639003985       28.5128742534       12.6182453365  SOLV      6776            0.0000000000
     20442      6787  TIP3      H2            -19.7355603985       28.4996942534       11.5490153365  SOLV      6776            0.0000000000
     20443      6788  TIP3      OH2           -16.2612303985       17.3443642534        7.7540853365  SOLV      6777            0.0000000000
     20444      6788  TIP3      H1            -17.1228603985       17.2571842534        7.3463753365  SOLV      6777            0.0000000000
     20445      6788  TIP3      H2            -16.2836603985       18.2003742534        8.1818453365  SOLV      6777            0.0000000000
     20446      6789  TIP3      OH2           -11.5984503985       17.0664042534       11.1287853365  SOLV      6778            0.0000000000
     20447      6789  TIP3      H1            -11.1781403985       16.6511142534       11.8818453365  SOLV      6778            0.0000000000
     20448      6789  TIP3      H2            -12.5314903985       16.8877342534       11.2459853365  SOLV      6778            0.0000000000
     20449      6790  TIP3      OH2            -8.2719603985       20.8219242534       11.9822353365  SOLV      6779            0.0000000000
     20450      6790  TIP3      H1             -8.7860103985       20.6961442534       12.7798353365  SOLV      6779            0.0000000000
     20451      6790  TIP3      H2             -8.4274903985       21.7342342534       11.7378553365  SOLV      6779            0.0000000000
     20452      6791  TIP3      OH2            -7.5094703985       25.6829242534       -2.2564646635  SOLV      6780            0.0000000000
     20453      6791  TIP3      H1             -7.4673903985       25.4603142534       -3.1864646635  SOLV      6780            0.0000000000
     20454      6791  TIP3      H2             -6.6602603985       26.0816342534       -2.0664746635  SOLV      6780            0.0000000000
     20455      6792  TIP3      OH2           -11.9367203985       19.5587442534       -1.5861346635  SOLV      6781            0.0000000000
     20456      6792  TIP3      H1            -12.1902403985       19.5779042534       -0.6633246635  SOLV      6781            0.0000000000
     20457      6792  TIP3      H2            -12.1935103985       18.6872842534       -1.8875146635  SOLV      6781            0.0000000000
     20458      6793  TIP3      OH2           -16.1702203985       22.3098142534        8.8491053365  SOLV      6782            0.0000000000
     20459      6793  TIP3      H1            -16.8120103985       22.2695442534        9.5581153365  SOLV      6782            0.0000000000
     20460      6793  TIP3      H2            -16.1330203985       23.2362842534        8.6114053365  SOLV      6782            0.0000000000
     20461      6794  TIP3      OH2           -16.1733103985       22.5308242534        3.7611053365  SOLV      6783            0.0000000000
     20462      6794  TIP3      H1            -17.0660203985       22.1904342534        3.7024853365  SOLV      6783            0.0000000000
     20463      6794  TIP3      H2            -15.7226503985       22.1539142534        3.0054253365  SOLV      6783            0.0000000000
     20464      6795  TIP3      OH2           -10.6377603985       22.9468542534        2.5781853365  SOLV      6784            0.0000000000
     20465      6795  TIP3      H1            -11.0467303985       23.7617142534        2.2866653365  SOLV      6784            0.0000000000
     20466      6795  TIP3      H2             -9.9171403985       22.8068642534        1.9638953365  SOLV      6784            0.0000000000
     20467      6796  TIP3      OH2           -11.5356003985       23.1224942534       14.0662553365  SOLV      6785            0.0000000000
     20468      6796  TIP3      H1            -12.0982203985       22.4176542534       14.3870353365  SOLV      6785            0.0000000000
     20469      6796  TIP3      H2            -10.7092603985       23.0016842534       14.5340153365  SOLV      6785            0.0000000000
     20470      6797  TIP3      OH2            -9.6329903985       22.3928942534        5.3921553365  SOLV      6786            0.0000000000
     20471      6797  TIP3      H1             -9.8285403985       22.9985742534        4.6772153365  SOLV      6786            0.0000000000
     20472      6797  TIP3      H2             -9.4517303985       21.5594142534        4.9577853365  SOLV      6786            0.0000000000
     20473      6798  TIP3      OH2           -18.4201703985       22.6301642534       10.7163053365  SOLV      6787            0.0000000000
     20474      6798  TIP3      H1            -18.4582303985       23.0303242534       11.5850153365  SOLV      6787            0.0000000000
     20475      6798  TIP3      H2            -18.9110603985       21.8134042534       10.8065953365  SOLV      6787            0.0000000000
     20476      6799  TIP3      OH2           -15.0544303985       20.0043942534       -2.4850946635  SOLV      6788            0.0000000000
     20477      6799  TIP3      H1            -15.4853603985       19.5594042534       -1.7553546635  SOLV      6788            0.0000000000
     20478      6799  TIP3      H2            -15.7725603985       20.3760242534       -2.9973446635  SOLV      6788            0.0000000000
     20479      6800  TIP3      OH2           -21.8120903985       19.7463442534        4.5667753365  SOLV      6789            0.0000000000
     20480      6800  TIP3      H1            -21.1813203985       19.7175542534        5.2861653365  SOLV      6789            0.0000000000
     20481      6800  TIP3      H2            -21.3626603985       19.3212142534        3.8363653365  SOLV      6789            0.0000000000
     20482      6801  TIP3      OH2           -20.5378803985       20.4925442534       -0.0091846635  SOLV      6790            0.0000000000
     20483      6801  TIP3      H1            -20.0637103985       21.0835342534       -0.5940946635  SOLV      6790            0.0000000000
     20484      6801  TIP3      H2            -21.2552403985       21.0228342534        0.3378253365  SOLV      6790            0.0000000000
     20485      6802  TIP3      OH2           -10.3690703985       24.0310242534       10.0633953365  SOLV      6791            0.0000000000
     20486      6802  TIP3      H1            -10.0455903985       23.3999942534        9.4204453365  SOLV      6791            0.0000000000
     20487      6802  TIP3      H2            -10.8091403985       23.4962442534       10.7241353365  SOLV      6791            0.0000000000
     20488      6803  TIP3      OH2           -13.5917803985       19.9585742534        4.8475153365  SOLV      6792            0.0000000000
     20489      6803  TIP3      H1            -14.5026703985       20.0152542534        5.1361153365  SOLV      6792            0.0000000000
     20490      6803  TIP3      H2            -13.0864903985       19.8981242534        5.6582353365  SOLV      6792            0.0000000000
     20491      6804  TIP3      OH2           -18.7634403985       21.5872042534        3.6742753365  SOLV      6793            0.0000000000
     20492      6804  TIP3      H1            -19.6526403985       21.6867542534        3.3342353365  SOLV      6793            0.0000000000
     20493      6804  TIP3      H2            -18.4669503985       20.7455042534        3.3280653365  SOLV      6793            0.0000000000
     20494      6805  TIP3      OH2           -15.1102603985       21.5874642534        1.3307353365  SOLV      6794            0.0000000000
     20495      6805  TIP3      H1            -14.1787103985       21.7164642534        1.5090453365  SOLV      6794            0.0000000000
     20496      6805  TIP3      H2            -15.3252303985       22.2568942534        0.6812053365  SOLV      6794            0.0000000000
     20497      6806  TIP3      OH2            -9.1865903985       19.1932042534        8.1116953365  SOLV      6795            0.0000000000
     20498      6806  TIP3      H1             -9.8634303985       19.3245142534        8.7756653365  SOLV      6795            0.0000000000
     20499      6806  TIP3      H2             -9.6721003985       19.0381542534        7.3014653365  SOLV      6795            0.0000000000
     20500      6807  TIP3      OH2           -16.4362403985       22.7816842534       -1.1026546635  SOLV      6796            0.0000000000
     20501      6807  TIP3      H1            -16.9787303985       22.4020642534       -1.7938946635  SOLV      6796            0.0000000000
     20502      6807  TIP3      H2            -15.6027503985       22.9761542534       -1.5312446635  SOLV      6796            0.0000000000
     20503      6808  TIP3      OH2            -5.8990803985       34.8647442534       14.3884553365  SOLV      6797            0.0000000000
     20504      6808  TIP3      H1             -5.6992103985       35.2889342534       13.5539853365  SOLV      6797            0.0000000000
     20505      6808  TIP3      H2             -5.2437103985       35.2085642534       14.9954953365  SOLV      6797            0.0000000000
     20506      6809  TIP3      OH2           -18.3011003985       27.3388742534       13.9965053365  SOLV      6798            0.0000000000
     20507      6809  TIP3      H1            -17.5688603985       27.5934642534       14.5579553365  SOLV      6798            0.0000000000
     20508      6809  TIP3      H2            -19.0812303985       27.5434142534       14.5120453365  SOLV      6798            0.0000000000
     20509      6810  TIP3      OH2           -12.2718103985       22.7458742534        6.7344753365  SOLV      6799            0.0000000000
     20510      6810  TIP3      H1            -11.7074703985       22.1995342534        6.1874353365  SOLV      6799            0.0000000000
     20511      6810  TIP3      H2            -12.4194703985       22.2240642534        7.5232353365  SOLV      6799            0.0000000000
     20512      6811  TIP3      OH2           -17.2698403985       18.8824842534        3.1529553365  SOLV      6800            0.0000000000
     20513      6811  TIP3      H1            -17.5868903985       17.9800142534        3.1174953365  SOLV      6800            0.0000000000
     20514      6811  TIP3      H2            -16.4884303985       18.8842242534        2.6001153365  SOLV      6800            0.0000000000
     20515      6812  TIP3      OH2           -13.6452203985       21.1344842534        9.1485153365  SOLV      6801            0.0000000000
     20516      6812  TIP3      H1            -14.4806903985       21.5884342534        9.2587553365  SOLV      6801            0.0000000000
     20517      6812  TIP3      H2            -13.1211603985       21.4103342534        9.9005053365  SOLV      6801            0.0000000000
     20518      6813  TIP3      OH2           -13.1009603985       27.3472542534        0.8331553365  SOLV      6802            0.0000000000
     20519      6813  TIP3      H1            -13.8458603985       26.8397842534        0.5109453365  SOLV      6802            0.0000000000
     20520      6813  TIP3      H2            -13.2352403985       27.3960542534        1.7796353365  SOLV      6802            0.0000000000
     20521      6814  TIP3      OH2            -5.9510703985       26.4800742534        9.6199153365  SOLV      6803            0.0000000000
     20522      6814  TIP3      H1             -5.3091903985       26.9367042534        9.0761353365  SOLV      6803            0.0000000000
     20523      6814  TIP3      H2             -6.7813803985       26.5933142534        9.1573253365  SOLV      6803            0.0000000000
     20524      6815  TIP3      OH2            -9.2032803985       20.1612442534       -0.9675846635  SOLV      6804            0.0000000000
     20525      6815  TIP3      H1            -10.1418603985       20.2728042534       -1.1187046635  SOLV      6804            0.0000000000
     20526      6815  TIP3      H2             -8.9060703985       21.0179342534       -0.6610146635  SOLV      6804            0.0000000000
     20527      6816  TIP3      OH2           -11.5817503985       27.5315842534       12.0700653365  SOLV      6805            0.0000000000
     20528      6816  TIP3      H1            -11.9271403985       27.1498242534       12.8770253365  SOLV      6805            0.0000000000
     20529      6816  TIP3      H2            -11.7817403985       28.4649442534       12.1413553365  SOLV      6805            0.0000000000
     20530      6817  TIP3      OH2            -8.4849303985       22.0285142534        0.6931553365  SOLV      6806            0.0000000000
     20531      6817  TIP3      H1             -7.5930303985       21.8910142534        1.0122753365  SOLV      6806            0.0000000000
     20532      6817  TIP3      H2             -8.4285703985       22.8191242534        0.1565053365  SOLV      6806            0.0000000000
     20533      6818  TIP3      OH2           -17.9761303985       26.6422542534        6.6029453365  SOLV      6807            0.0000000000
     20534      6818  TIP3      H1            -17.2314103985       26.6398242534        6.0015953365  SOLV      6807            0.0000000000
     20535      6818  TIP3      H2            -17.8984703985       25.8186342534        7.0844553365  SOLV      6807            0.0000000000
     20536      6819  TIP3      OH2           -10.9755503985       28.8056842534       -0.1413846635  SOLV      6808            0.0000000000
     20537      6819  TIP3      H1            -11.2707103985       29.6324742534        0.2400953365  SOLV      6808            0.0000000000
     20538      6819  TIP3      H2            -11.6785503985       28.1863742534        0.0547553365  SOLV      6808            0.0000000000
     20539      6820  TIP3      OH2           -20.9681603985       25.1029442534       11.9177953365  SOLV      6809            0.0000000000
     20540      6820  TIP3      H1            -20.7453003985       24.6849042534       12.7495453365  SOLV      6809            0.0000000000
     20541      6820  TIP3      H2            -21.5701503985       24.4904442534       11.4950753365  SOLV      6809            0.0000000000
     20542      6821  TIP3      OH2           -13.9516703985       24.6199342534       14.1307653365  SOLV      6810            0.0000000000
     20543      6821  TIP3      H1            -14.2475903985       24.4542342534       13.2356753365  SOLV      6810            0.0000000000
     20544      6821  TIP3      H2            -13.0201503985       24.3999642534       14.1201553365  SOLV      6810            0.0000000000
     20545      6822  TIP3      OH2            -9.3313903985       29.9931342534       12.0205653365  SOLV      6811            0.0000000000
     20546      6822  TIP3      H1            -10.2319603985       30.1763942534       11.7529553365  SOLV      6811            0.0000000000
     20547      6822  TIP3      H2             -9.2972803985       30.2520642534       12.9414453365  SOLV      6811            0.0000000000
     20548      6823  TIP3      OH2            -3.6000603985       22.2379242534        0.3878253365  SOLV      6812            0.0000000000
     20549      6823  TIP3      H1             -4.1544303985       21.8417242534       -0.2844246635  SOLV      6812            0.0000000000
     20550      6823  TIP3      H2             -3.4997003985       23.1484442534        0.1101553365  SOLV      6812            0.0000000000
     20551      6824  TIP3      OH2            -3.6368603985       28.0380942534       13.2249753365  SOLV      6813            0.0000000000
     20552      6824  TIP3      H1             -4.4880103985       28.2764742534       12.8576153365  SOLV      6813            0.0000000000
     20553      6824  TIP3      H2             -3.0465203985       28.0214142534       12.4716853365  SOLV      6813            0.0000000000
     20554      6825  TIP3      OH2            -5.3048903985       31.0239642534        0.8530353365  SOLV      6814            0.0000000000
     20555      6825  TIP3      H1             -5.6777803985       30.1983442534        1.1620953365  SOLV      6814            0.0000000000
     20556      6825  TIP3      H2             -5.0275403985       30.8409042534       -0.0446246635  SOLV      6814            0.0000000000
     20557      6826  TIP3      OH2            -8.1445003985       25.8319142534        7.8742253365  SOLV      6815            0.0000000000
     20558      6826  TIP3      H1             -9.0728103985       25.6001042534        7.8471553365  SOLV      6815            0.0000000000
     20559      6826  TIP3      H2             -7.6933903985       25.0548942534        7.5441053365  SOLV      6815            0.0000000000
     20560      6827  TIP3      OH2           -15.6011903985       30.1600742534        4.0070953365  SOLV      6816            0.0000000000
     20561      6827  TIP3      H1            -15.0739703985       30.9335142534        3.8069753365  SOLV      6816            0.0000000000
     20562      6827  TIP3      H2            -16.4813403985       30.3849942534        3.7054953365  SOLV      6816            0.0000000000
     20563      6828  TIP3      OH2           -19.8464203985       25.0224842534       -1.4056646635  SOLV      6817            0.0000000000
     20564      6828  TIP3      H1            -19.2304303985       25.6492042534       -1.0261846635  SOLV      6817            0.0000000000
     20565      6828  TIP3      H2            -20.7081603985       25.3384642534       -1.1340146635  SOLV      6817            0.0000000000
     20566      6829  TIP3      OH2           -14.1739603985       27.8230642534        3.5835253365  SOLV      6818            0.0000000000
     20567      6829  TIP3      H1            -14.4149603985       28.7485042534        3.6250553365  SOLV      6818            0.0000000000
     20568      6829  TIP3      H2            -14.9146003985       27.3641942534        3.9799153365  SOLV      6818            0.0000000000
     20569      6830  TIP3      OH2           -13.6593003985       31.9724242534        9.8986353365  SOLV      6819            0.0000000000
     20570      6830  TIP3      H1            -13.2968303985       32.8269842534        9.6650753365  SOLV      6819            0.0000000000
     20571      6830  TIP3      H2            -13.1277803985       31.6805842534       10.6392653365  SOLV      6819            0.0000000000
     20572      6831  TIP3      OH2           -15.4908803985       32.8448242534        3.1287453365  SOLV      6820            0.0000000000
     20573      6831  TIP3      H1            -16.4408303985       32.9505642534        3.1800753365  SOLV      6820            0.0000000000
     20574      6831  TIP3      H2            -15.1390703985       33.6655642534        3.4734953365  SOLV      6820            0.0000000000
     20575      6832  TIP3      OH2           -10.1152203985       28.0714942534        9.5991953365  SOLV      6821            0.0000000000
     20576      6832  TIP3      H1            -10.5410903985       27.8436642534       10.4255953365  SOLV      6821            0.0000000000
     20577      6832  TIP3      H2             -9.5346403985       27.3326742534        9.4167253365  SOLV      6821            0.0000000000
     20578      6833  TIP3      OH2            -7.9123303985       29.0005442534       -1.3269046635  SOLV      6822            0.0000000000
     20579      6833  TIP3      H1             -7.5590203985       28.6205242534       -0.5225546635  SOLV      6822            0.0000000000
     20580      6833  TIP3      H2             -8.8609803985       28.9070242534       -1.2399746635  SOLV      6822            0.0000000000
     20581      6834  TIP3      OH2            -7.4568003985       32.6234442534       12.0686753365  SOLV      6823            0.0000000000
     20582      6834  TIP3      H1             -8.0584803985       32.0677342534       11.5733053365  SOLV      6823            0.0000000000
     20583      6834  TIP3      H2             -7.1754303985       33.2904242534       11.4424153365  SOLV      6823            0.0000000000
     20584      6835  TIP3      OH2            -3.4088903985       33.4797942534       -1.1258846635  SOLV      6824            0.0000000000
     20585      6835  TIP3      H1             -2.6651003985       34.0658442534       -1.2657246635  SOLV      6824            0.0000000000
     20586      6835  TIP3      H2             -4.1030803985       34.0483742534       -0.7926446635  SOLV      6824            0.0000000000
     20587      6836  TIP3      OH2           -19.3342103985       19.8562142534       11.4759353365  SOLV      6825            0.0000000000
     20588      6836  TIP3      H1            -20.2269803985       20.1947542534       11.4083353365  SOLV      6825            0.0000000000
     20589      6836  TIP3      H2            -19.4329303985       19.0008242534       11.8940153365  SOLV      6825            0.0000000000
     20590      6837  TIP3      OH2            -7.0464003985       27.6727442534        0.8998853365  SOLV      6826            0.0000000000
     20591      6837  TIP3      H1             -7.3236403985       26.9446742534        1.4559953365  SOLV      6826            0.0000000000
     20592      6837  TIP3      H2             -6.1191003985       27.7919442534        1.1051453365  SOLV      6826            0.0000000000
     20593      6838  TIP3      OH2           -19.6830103985       31.6606542534        9.9108753365  SOLV      6827            0.0000000000
     20594      6838  TIP3      H1            -19.4659803985       30.7288942534        9.8798453365  SOLV      6827            0.0000000000
     20595      6838  TIP3      H2            -19.4366603985       31.9351542534       10.7941553365  SOLV      6827            0.0000000000
     20596      6839  TIP3      OH2           -13.8215503985       30.1121542534       -2.8799046635  SOLV      6828            0.0000000000
     20597      6839  TIP3      H1            -13.5825703985       29.3639642534       -3.4270146635  SOLV      6828            0.0000000000
     20598      6839  TIP3      H2            -14.0904203985       29.7243242534       -2.0471246635  SOLV      6828            0.0000000000
     20599      6840  TIP3      OH2           -18.4313803985       26.9348642534        0.0868953365  SOLV      6829            0.0000000000
     20600      6840  TIP3      H1            -19.1174503985       27.2871142534        0.6538653365  SOLV      6829            0.0000000000
     20601      6840  TIP3      H2            -17.9085903985       27.6978242534       -0.1596746635  SOLV      6829            0.0000000000
     20602      6841  TIP3      OH2           -10.5998703985       19.5972442534       10.3657953365  SOLV      6830            0.0000000000
     20603      6841  TIP3      H1             -9.9010803985       19.6711142534       11.0157653365  SOLV      6830            0.0000000000
     20604      6841  TIP3      H2            -10.9807303985       18.7327442534       10.5200853365  SOLV      6830            0.0000000000
     20605      6842  TIP3      OH2            -9.8153803985       19.2494142534        1.4630253365  SOLV      6831            0.0000000000
     20606      6842  TIP3      H1             -9.5955503985       19.7209542534        0.6595653365  SOLV      6831            0.0000000000
     20607      6842  TIP3      H2             -9.2569803985       19.6436742534        2.1330853365  SOLV      6831            0.0000000000
     20608      6843  TIP3      OH2           -12.1467703985       31.3798942534        0.3257753365  SOLV      6832            0.0000000000
     20609      6843  TIP3      H1            -12.9631603985       31.8768642534        0.3782053365  SOLV      6832            0.0000000000
     20610      6843  TIP3      H2            -11.6171403985       31.8552442534       -0.3143446635  SOLV      6832            0.0000000000
     20611      6844  TIP3      OH2           -12.6153903985       20.9772942534        2.2978653365  SOLV      6833            0.0000000000
     20612      6844  TIP3      H1            -11.8031303985       21.4816142534        2.3440353365  SOLV      6833            0.0000000000
     20613      6844  TIP3      H2            -12.8600903985       20.8322642534        3.2118253365  SOLV      6833            0.0000000000
     20614      6845  TIP3      OH2           -12.0797503985       21.9635642534       11.4825253365  SOLV      6834            0.0000000000
     20615      6845  TIP3      H1            -11.9607203985       22.5371042534       12.2395653365  SOLV      6834            0.0000000000
     20616      6845  TIP3      H2            -11.4242903985       21.2755042534       11.5973053365  SOLV      6834            0.0000000000
     20617      6846  TIP3      OH2           -11.7317203985       18.0585942534        3.2359753365  SOLV      6835            0.0000000000
     20618      6846  TIP3      H1            -12.0783703985       18.6756542534        3.8804053365  SOLV      6835            0.0000000000
     20619      6846  TIP3      H2            -11.0730303985       18.5591642534        2.7545253365  SOLV      6835            0.0000000000
     20620      6847  TIP3      OH2           -16.0740203985       19.1215342534       -0.0767746635  SOLV      6836            0.0000000000
     20621      6847  TIP3      H1            -16.1575403985       20.0098442534        0.2698653365  SOLV      6836            0.0000000000
     20622      6847  TIP3      H2            -15.1839903985       18.8562042534        0.1549053365  SOLV      6836            0.0000000000
     20623      6848  TIP3      OH2            -5.8751703985       19.8705942534       12.3174953365  SOLV      6837            0.0000000000
     20624      6848  TIP3      H1             -6.7915903985       20.1327642534       12.2298653365  SOLV      6837            0.0000000000
     20625      6848  TIP3      H2             -5.5396703985       19.8674942534       11.4210253365  SOLV      6837            0.0000000000
     20626      6849  TIP3      OH2            -7.2730703985       23.6206942534        6.4132253365  SOLV      6838            0.0000000000
     20627      6849  TIP3      H1             -8.0706303985       23.2057142534        6.0847253365  SOLV      6838            0.0000000000
     20628      6849  TIP3      H2             -6.8279603985       22.9300642534        6.9042753365  SOLV      6838            0.0000000000
     20629      6850  TIP3      OH2           -17.8154903985       29.5487542534       -1.0163246635  SOLV      6839            0.0000000000
     20630      6850  TIP3      H1            -17.2233403985       30.2482342534       -0.7400846635  SOLV      6839            0.0000000000
     20631      6850  TIP3      H2            -17.3561903985       29.1157042534       -1.7358646635  SOLV      6839            0.0000000000
     20632      6851  TIP3      OH2           -19.4995703985       22.2130542534       -1.9003846635  SOLV      6840            0.0000000000
     20633      6851  TIP3      H1            -19.5443103985       23.1523642534       -1.7216846635  SOLV      6840            0.0000000000
     20634      6851  TIP3      H2            -20.3872503985       21.9775442534       -2.1701746635  SOLV      6840            0.0000000000
     20635      6852  TIP3      OH2            -6.1866103985       32.8769442534        8.0355753365  SOLV      6841            0.0000000000
     20636      6852  TIP3      H1             -6.3421803985       33.5553842534        7.3785053365  SOLV      6841            0.0000000000
     20637      6852  TIP3      H2             -5.2539703985       32.9488742534        8.2386353365  SOLV      6841            0.0000000000
     20638      6853  TIP3      OH2           -18.6913703985       16.9947142534        6.7727153365  SOLV      6842            0.0000000000
     20639      6853  TIP3      H1            -18.9203903985       17.0539642534        5.8452153365  SOLV      6842            0.0000000000
     20640      6853  TIP3      H2            -19.1340303985       16.2032642534        7.0791253365  SOLV      6842            0.0000000000
     20641      6854  TIP3      OH2           -19.7610403985       30.9354242534        2.9332953365  SOLV      6843            0.0000000000
     20642      6854  TIP3      H1            -20.5931803985       31.4076942534        2.9604353365  SOLV      6843            0.0000000000
     20643      6854  TIP3      H2            -19.2152103985       31.4451842534        2.3346053365  SOLV      6843            0.0000000000
     20644      6855  TIP3      OH2           -20.4726703985       33.5477942534       14.2630953365  SOLV      6844            0.0000000000
     20645      6855  TIP3      H1            -19.9324503985       33.3311942534       15.0230153365  SOLV      6844            0.0000000000
     20646      6855  TIP3      H2            -20.9538703985       32.7423942534       14.0733453365  SOLV      6844            0.0000000000
     20647      6856  TIP3      OH2           -15.8753303985       32.4672342534       15.8835153365  SOLV      6845            0.0000000000
     20648      6856  TIP3      H1            -15.1076103985       32.0083142534       16.2244353365  SOLV      6845            0.0000000000
     20649      6856  TIP3      H2            -15.8967103985       32.2412142534       14.9536353365  SOLV      6845            0.0000000000
     20650      6857  TIP3      OH2           -11.7833703985       31.9752942534       -2.7413046635  SOLV      6846            0.0000000000
     20651      6857  TIP3      H1            -12.4272703985       31.3441542534       -2.4199346635  SOLV      6846            0.0000000000
     20652      6857  TIP3      H2            -11.0215403985       31.4440942534       -2.9729546635  SOLV      6846            0.0000000000
     20653      6858  TIP3      OH2            -9.2984603985       30.8473442534       14.6126653365  SOLV      6847            0.0000000000
     20654      6858  TIP3      H1             -9.6495103985       29.9906442534       14.8557053365  SOLV      6847            0.0000000000
     20655      6858  TIP3      H2             -8.5721403985       30.9900142534       15.2195653365  SOLV      6847            0.0000000000
     20656      6859  TIP3      OH2            -7.1790803985       31.7922842534       -2.5075046635  SOLV      6848            0.0000000000
     20657      6859  TIP3      H1             -6.8960403985       30.9978042534       -2.0548146635  SOLV      6848            0.0000000000
     20658      6859  TIP3      H2             -6.4392903985       32.0253842534       -3.0683946635  SOLV      6848            0.0000000000
     20659      6860  TIP3      OH2           -20.5657203985       27.3582042534       15.2175253365  SOLV      6849            0.0000000000
     20660      6860  TIP3      H1            -20.4216703985       26.4562742534       14.9311953365  SOLV      6849            0.0000000000
     20661      6860  TIP3      H2            -21.3379803985       27.6444142534       14.7297553365  SOLV      6849            0.0000000000
     20662      6861  TIP3      OH2           -16.2243503985       27.7017742534       -2.6500146635  SOLV      6850            0.0000000000
     20663      6861  TIP3      H1            -16.1599403985       26.9077342534       -2.1193746635  SOLV      6850            0.0000000000
     20664      6861  TIP3      H2            -15.5714303985       27.5830542534       -3.3398146635  SOLV      6850            0.0000000000
     20665      6862  TIP3      OH2           -13.9101103985       27.3280142534       14.6501653365  SOLV      6851            0.0000000000
     20666      6862  TIP3      H1            -14.2387303985       27.5988242534       13.7929053365  SOLV      6851            0.0000000000
     20667      6862  TIP3      H2            -13.7582903985       26.3869942534       14.5626653365  SOLV      6851            0.0000000000
     20668      6863  TIP3      OH2           -10.8720103985       28.7489442534       -2.9142146635  SOLV      6852            0.0000000000
     20669      6863  TIP3      H1            -11.1406003985       28.9291542534       -2.0133246635  SOLV      6852            0.0000000000
     20670      6863  TIP3      H2            -11.0784503985       27.8235642534       -3.0456346635  SOLV      6852            0.0000000000
     20671      6864  TIP3      OH2            -8.1755903985       27.2437442534       12.0333953365  SOLV      6853            0.0000000000
     20672      6864  TIP3      H1             -7.4301103985       27.8321142534       11.9137953365  SOLV      6853            0.0000000000
     20673      6864  TIP3      H2             -8.9329103985       27.8257142534       12.0967053365  SOLV      6853            0.0000000000
     20674      6865  TIP3      OH2           -19.7330703985       24.5585342534       14.6374553365  SOLV      6854            0.0000000000
     20675      6865  TIP3      H1            -19.3249503985       23.7011942534       14.5165153365  SOLV      6854            0.0000000000
     20676      6865  TIP3      H2            -19.9933103985       24.5726642534       15.5584853365  SOLV      6854            0.0000000000
     20677      6866  TIP3      OH2           -15.0749703985       25.6743942534       -0.3442146635  SOLV      6855            0.0000000000
     20678      6866  TIP3      H1            -15.5347703985       25.1902242534        0.3416353365  SOLV      6855            0.0000000000
     20679      6866  TIP3      H2            -14.8201003985       25.0059342534       -0.9801646635  SOLV      6855            0.0000000000
     20680      6867  TIP3      OH2           -15.7860403985       23.5671042534       12.0117453365  SOLV      6856            0.0000000000
     20681      6867  TIP3      H1            -16.4044303985       24.2417642534       12.2922153365  SOLV      6856            0.0000000000
     20682      6867  TIP3      H2            -15.4419203985       23.8884942534       11.1783653365  SOLV      6856            0.0000000000
     20683      6868  TIP3      OH2           -14.0039303985       23.9175742534       -2.0818946635  SOLV      6857            0.0000000000
     20684      6868  TIP3      H1            -14.1844303985       23.7626942534       -3.0090646635  SOLV      6857            0.0000000000
     20685      6868  TIP3      H2            -13.0538803985       24.0254442534       -2.0371046635  SOLV      6857            0.0000000000
     20686      6869  TIP3      OH2           -10.7662203985       26.0386342534       15.2892253365  SOLV      6858            0.0000000000
     20687      6869  TIP3      H1             -9.8131003985       26.1225442534       15.2618253365  SOLV      6858            0.0000000000
     20688      6869  TIP3      H2            -10.9267603985       25.3268142534       15.9087153365  SOLV      6858            0.0000000000
     20689      6870  TIP3      OH2            -4.6141003985       26.2719942534       -2.6360846635  SOLV      6859            0.0000000000
     20690      6870  TIP3      H1             -4.8876203985       25.8475442534       -3.4492546635  SOLV      6859            0.0000000000
     20691      6870  TIP3      H2             -4.5746903985       27.2034442534       -2.8530446635  SOLV      6859            0.0000000000
     20692      6871  TIP3      OH2           -15.4466703985       20.9221842534       13.0940553365  SOLV      6860            0.0000000000
     20693      6871  TIP3      H1            -15.2965803985       20.1933142534       12.4920253365  SOLV      6860            0.0000000000
     20694      6871  TIP3      H2            -15.4444303985       21.6993542534       12.5352753365  SOLV      6860            0.0000000000
     20695      6872  TIP3      OH2           -15.0341003985       19.2917642534       10.5867953365  SOLV      6861            0.0000000000
     20696      6872  TIP3      H1            -14.4983503985       19.7434342534        9.9347253365  SOLV      6861            0.0000000000
     20697      6872  TIP3      H2            -15.8861403985       19.1837442534       10.1642053365  SOLV      6861            0.0000000000
     20698      6873  TIP3      OH2           -13.4522603985       24.7313842534       10.8263153365  SOLV      6862            0.0000000000
     20699      6873  TIP3      H1            -12.7017803985       24.5751342534       10.2530953365  SOLV      6862            0.0000000000
     20700      6873  TIP3      H2            -13.7914303985       25.5830442534       10.5508653365  SOLV      6862            0.0000000000
     20701      6874  TIP3      OH2            -9.0366403985       22.5465642534       15.8548453365  SOLV      6863            0.0000000000
     20702      6874  TIP3      H1             -8.8445103985       21.6155042534       15.7432953365  SOLV      6863            0.0000000000
     20703      6874  TIP3      H2             -8.1790103985       22.9715142534       15.8443853365  SOLV      6863            0.0000000000
     20704      6875  TIP3      OH2            -7.7199203985       25.3350842534       13.9321153365  SOLV      6864            0.0000000000
     20705      6875  TIP3      H1             -8.0014203985       26.0445442534       13.3544953365  SOLV      6864            0.0000000000
     20706      6875  TIP3      H2             -6.7774903985       25.2623842534       13.7812353365  SOLV      6864            0.0000000000
     20707      6876  TIP3      OH2           -16.9680403985       22.1205342534       15.0056153365  SOLV      6865            0.0000000000
     20708      6876  TIP3      H1            -17.7351403985       21.5880142534       14.7953753365  SOLV      6865            0.0000000000
     20709      6876  TIP3      H2            -16.2891403985       21.8105742534       14.4062453365  SOLV      6865            0.0000000000
     20710      6877  TIP3      OH2           -14.2285503985       16.7483342534       11.0181553365  SOLV      6866            0.0000000000
     20711      6877  TIP3      H1            -14.3265903985       17.6946542534       10.9127753365  SOLV      6866            0.0000000000
     20712      6877  TIP3      H2            -14.9709303985       16.3757142534       10.5425053365  SOLV      6866            0.0000000000
     20713      6878  TIP3      OH2           -12.9645003985       21.0698742534       14.5819953365  SOLV      6867            0.0000000000
     20714      6878  TIP3      H1            -13.1999603985       20.8505442534       15.4834853365  SOLV      6867            0.0000000000
     20715      6878  TIP3      H2            -13.7478103985       20.8629942534       14.0722453365  SOLV      6867            0.0000000000
     20716      6879  TIP3      OH2           -10.2488403985       20.1972242534       13.6573453365  SOLV      6868            0.0000000000
     20717      6879  TIP3      H1            -11.1963003985       20.2291942534       13.7896753365  SOLV      6868            0.0000000000
     20718      6879  TIP3      H2             -9.9361703985       19.5719342534       14.3111653365  SOLV      6868            0.0000000000
     20719      6880  TIP3      OH2            -8.6146903985       18.8313342534       15.6625353365  SOLV      6869            0.0000000000
     20720      6880  TIP3      H1             -8.7115103985       17.8790642534       15.6567253365  SOLV      6869            0.0000000000
     20721      6880  TIP3      H2             -8.9363803985       19.1000142534       16.5230853365  SOLV      6869            0.0000000000
     20722      6881  TIP3      OH2           -18.7877603985       20.0409142534       14.7100853365  SOLV      6870            0.0000000000
     20723      6881  TIP3      H1            -18.5760203985       19.3345242534       14.0998353365  SOLV      6870            0.0000000000
     20724      6881  TIP3      H2            -18.8990103985       19.6035142534       15.5542053365  SOLV      6870            0.0000000000
     20725      6882  TIP3      OH2           -14.0067403985       16.0420742534       13.6894353365  SOLV      6871            0.0000000000
     20726      6882  TIP3      H1            -13.2949003985       15.4022942534       13.6753453365  SOLV      6871            0.0000000000
     20727      6882  TIP3      H2            -14.1077003985       16.3089042534       12.7757453365  SOLV      6871            0.0000000000
     20728      6883  TIP3      OH2           -13.6529903985       17.7249142534       15.7430653365  SOLV      6872            0.0000000000
     20729      6883  TIP3      H1            -13.7847703985       17.2492942534       14.9229153365  SOLV      6872            0.0000000000
     20730      6883  TIP3      H2            -14.2522503985       18.4692742534       15.6877753365  SOLV      6872            0.0000000000
     20731      6884  TIP3      OH2           -14.1067603985       34.6079442534       -1.0805346635  SOLV      6873            0.0000000000
     20732      6884  TIP3      H1            -13.1736903985       34.7658142534       -0.9366946635  SOLV      6873            0.0000000000
     20733      6884  TIP3      H2            -14.3708803985       35.2832442534       -1.7053846635  SOLV      6873            0.0000000000
     20734      6885  TIP3      OH2           -20.5382703985       29.2443242534       -1.5977246635  SOLV      6874            0.0000000000
     20735      6885  TIP3      H1            -19.6243503985       29.3232142534       -1.3243346635  SOLV      6874            0.0000000000
     20736      6885  TIP3      H2            -20.5309603985       28.5572842534       -2.2641646635  SOLV      6874            0.0000000000
     20737      6886  TIP3      OH2           -21.8892103985       34.6371742534        3.4796653365  SOLV      6875            0.0000000000
     20738      6886  TIP3      H1            -22.5365003985       34.1753442534        2.9467853365  SOLV      6875            0.0000000000
     20739      6886  TIP3      H2            -21.5347503985       33.9655042534        4.0622853365  SOLV      6875            0.0000000000
     20740      6887  TIP3      OH2           -21.0192903985       32.7178742534        5.2842853365  SOLV      6876            0.0000000000
     20741      6887  TIP3      H1            -21.3536103985       31.8376042534        5.4563053365  SOLV      6876            0.0000000000
     20742      6887  TIP3      H2            -20.7970503985       33.0633742534        6.1488453365  SOLV      6876            0.0000000000
     20743      6888  TIP3      OH2            -3.4708103985       33.5275142534        8.2647653365  SOLV      6877            0.0000000000
     20744      6888  TIP3      H1             -3.4921403985       33.7123542534        9.2037053365  SOLV      6877            0.0000000000
     20745      6888  TIP3      H2             -2.7801903985       34.0959142534        7.9239053365  SOLV      6877            0.0000000000
     20746      6889  TIP3      OH2            -3.9075203985       33.0946242534       11.1866753365  SOLV      6878            0.0000000000
     20747      6889  TIP3      H1             -4.3946503985       32.3590342534       10.8154153365  SOLV      6878            0.0000000000
     20748      6889  TIP3      H2             -3.3582503985       32.7010142534       11.8646153365  SOLV      6878            0.0000000000
     20749      6890  TIP3      OH2            -5.4567903985       28.8844342534       15.8247053365  SOLV      6879            0.0000000000
     20750      6890  TIP3      H1             -6.3226803985       28.7794042534       16.2189353365  SOLV      6879            0.0000000000
     20751      6890  TIP3      H2             -5.0802003985       29.6427642534       16.2711753365  SOLV      6879            0.0000000000
     20752      6891  TIP3      OH2            -4.1558203985       27.1408042534        1.3389553365  SOLV      6880            0.0000000000
     20753      6891  TIP3      H1             -3.3056803985       27.5618942534        1.4661153365  SOLV      6880            0.0000000000
     20754      6891  TIP3      H2             -4.1503103985       26.4008142534        1.9460953365  SOLV      6880            0.0000000000
     20755      6892  TIP3      OH2            -3.7612603985       25.1945442534        3.1625253365  SOLV      6881            0.0000000000
     20756      6892  TIP3      H1             -4.4878003985       24.7148042534        3.5602853365  SOLV      6881            0.0000000000
     20757      6892  TIP3      H2             -3.1799303985       25.4000142534        3.8946853365  SOLV      6881            0.0000000000
     20758      6893  TIP3      OH2            -4.0021403985       27.9792942534        8.1102853365  SOLV      6882            0.0000000000
     20759      6893  TIP3      H1             -3.1687203985       27.6012942534        7.8296453365  SOLV      6882            0.0000000000
     20760      6893  TIP3      H2             -3.8901103985       28.9224142534        7.9911953365  SOLV      6882            0.0000000000
     20761      6894  TIP3      OH2            -5.5159103985       30.8570442534       10.4171253365  SOLV      6883            0.0000000000
     20762      6894  TIP3      H1             -6.1633803985       31.1821942534       11.0426453365  SOLV      6883            0.0000000000
     20763      6894  TIP3      H2             -6.0335103985       30.4168142534        9.7429553365  SOLV      6883            0.0000000000
     20764      6895  TIP3      OH2            -3.4929503985       25.0953942534       -0.4463446635  SOLV      6884            0.0000000000
     20765      6895  TIP3      H1             -4.0148403985       25.4518042534       -1.1652546635  SOLV      6884            0.0000000000
     20766      6895  TIP3      H2             -3.5260303985       25.7701742534        0.2317453365  SOLV      6884            0.0000000000
     20767      6896  TIP3      OH2            -5.1440503985       22.3349542534       -1.8956346635  SOLV      6885            0.0000000000
     20768      6896  TIP3      H1             -5.0476103985       23.0016542534       -2.5756646635  SOLV      6885            0.0000000000
     20769      6896  TIP3      H2             -5.2840903985       21.5195842534       -2.3770846635  SOLV      6885            0.0000000000
     20770      6897  TIP3      OH2            -5.9745803985       23.7151942534        3.7253953365  SOLV      6886            0.0000000000
     20771      6897  TIP3      H1             -6.1247003985       22.7700542534        3.7051753365  SOLV      6886            0.0000000000
     20772      6897  TIP3      H2             -6.3281303985       23.9963342534        4.5693053365  SOLV      6886            0.0000000000
     20773      6898  TIP3      OH2           -20.9393403985       25.7934142534        7.7357753365  SOLV      6887            0.0000000000
     20774      6898  TIP3      H1            -20.7550503985       25.7115842534        6.8000653365  SOLV      6887            0.0000000000
     20775      6898  TIP3      H2            -20.0900503985       25.6691142534        8.1594153365  SOLV      6887            0.0000000000
     20776      6899  TIP3      OH2            -5.1182903985       25.6855242534       13.3642253365  SOLV      6888            0.0000000000
     20777      6899  TIP3      H1             -4.5355603985       24.9507542534       13.5559453365  SOLV      6888            0.0000000000
     20778      6899  TIP3      H2             -4.5543603985       26.4575542534       13.4108053365  SOLV      6888            0.0000000000
     20779      6900  TIP3      OH2            -3.6215803985       23.5881042534       14.0487653365  SOLV      6889            0.0000000000
     20780      6900  TIP3      H1             -4.4849103985       23.2093142534       13.8832353365  SOLV      6889            0.0000000000
     20781      6900  TIP3      H2             -3.0172103985       22.8495842534       13.9743453365  SOLV      6889            0.0000000000
     20782      6901  TIP3      OH2            -5.8966703985       19.7429342534       -2.7780846635  SOLV      6890            0.0000000000
     20783      6901  TIP3      H1             -5.2860903985       19.3716142534       -2.1412646635  SOLV      6890            0.0000000000
     20784      6901  TIP3      H2             -6.7335203985       19.3216242534       -2.5820846635  SOLV      6890            0.0000000000
     20785      6902  TIP3      OH2            -6.2641003985       21.2977742534        2.1879053365  SOLV      6891            0.0000000000
     20786      6902  TIP3      H1             -5.9843903985       20.3908142534        2.3120753365  SOLV      6891            0.0000000000
     20787      6902  TIP3      H2             -5.5049303985       21.7319242534        1.7988253365  SOLV      6891            0.0000000000
     20788      6903  TIP3      OH2            -5.6522703985       21.8795142534        7.6237953365  SOLV      6892            0.0000000000
     20789      6903  TIP3      H1             -4.7194703985       22.0915042534        7.5893953365  SOLV      6892            0.0000000000
     20790      6903  TIP3      H2             -5.8875203985       21.9807242534        8.5460953365  SOLV      6892            0.0000000000
     20791      6904  TIP3      OH2            -5.6230803985       22.6160442534       10.3997353365  SOLV      6893            0.0000000000
     20792      6904  TIP3      H1             -6.4659503985       22.8840842534       10.7657153365  SOLV      6893            0.0000000000
     20793      6904  TIP3      H2             -5.1806503985       23.4382342534       10.1888453365  SOLV      6893            0.0000000000
     20794      6905  TIP3      OH2           -21.3418603985       21.0639142534       13.8766553365  SOLV      6894            0.0000000000
     20795      6905  TIP3      H1            -20.4223703985       20.9417442534       14.1129653365  SOLV      6894            0.0000000000
     20796      6905  TIP3      H2            -21.7914103985       20.3138842534       14.2660053365  SOLV      6894            0.0000000000
     20797      6906  TIP3      OH2            -3.3399203985       16.5960642534       15.7532353365  SOLV      6895            0.0000000000
     20798      6906  TIP3      H1             -2.9902203985       15.9424142534       15.1477053365  SOLV      6895            0.0000000000
     20799      6906  TIP3      H2             -3.1929703985       17.4334742534       15.3134953365  SOLV      6895            0.0000000000
     20800      6907  TIP3      OH2            -5.6506203985       18.5607042534        2.2361053365  SOLV      6896            0.0000000000
     20801      6907  TIP3      H1             -5.4681203985       18.1118542534        3.0616053365  SOLV      6896            0.0000000000
     20802      6907  TIP3      H2             -6.2503303985       17.9761442534        1.7725653365  SOLV      6896            0.0000000000
     20803      6908  TIP3      OH2           -20.1206103985       19.3760742534        6.7679453365  SOLV      6897            0.0000000000
     20804      6908  TIP3      H1            -19.6754503985       18.5843242534        7.0699153365  SOLV      6897            0.0000000000
     20805      6908  TIP3      H2            -19.6543103985       20.0925942534        7.1985053365  SOLV      6897            0.0000000000
     20806      6909  TIP3      OH2           -21.8165803985       22.3753742534        7.8369653365  SOLV      6898            0.0000000000
     20807      6909  TIP3      H1            -21.3246003985       22.1544242534        7.0461653365  SOLV      6898            0.0000000000
     20808      6909  TIP3      H2            -21.4544903985       23.2157142534        8.1179153365  SOLV      6898            0.0000000000
     20809      6910  TIP3      OH2            -3.8202003985       18.7055242534       14.1023653365  SOLV      6899            0.0000000000
     20810      6910  TIP3      H1             -4.7376303985       18.9762342534       14.0667153365  SOLV      6899            0.0000000000
     20811      6910  TIP3      H2             -3.6972603985       18.1703642534       13.3183353365  SOLV      6899            0.0000000000
     20812      6911  TIP3      OH2            -3.7840003985       18.6285142534       -1.2358646635  SOLV      6900            0.0000000000
     20813      6911  TIP3      H1             -3.3717403985       17.9070842534       -1.7110646635  SOLV      6900            0.0000000000
     20814      6911  TIP3      H2             -3.1023503985       19.2979742534       -1.1774346635  SOLV      6900            0.0000000000
     20815      6912  TIP3      OH2           -21.5029303985       18.6332842534        1.8912053365  SOLV      6901            0.0000000000
     20816      6912  TIP3      H1            -22.4280903985       18.8419442534        1.7617553365  SOLV      6901            0.0000000000
     20817      6912  TIP3      H2            -21.0489403985       19.1173642534        1.2014353365  SOLV      6901            0.0000000000
     20818      6913  TIP3      OH2            -6.7322103985       33.6174542534        3.8369453365  SOLV      6902            0.0000000000
     20819      6913  TIP3      H1             -6.0799203985       33.2696642534        3.2288553365  SOLV      6902            0.0000000000
     20820      6913  TIP3      H2             -6.2218303985       34.1057742534        4.4829153365  SOLV      6902            0.0000000000
     20821      6914  TIP3      OH2           -21.5393903985       17.3711842534       10.2354553365  SOLV      6903            0.0000000000
     20822      6914  TIP3      H1            -22.2043403985       17.1252142534       10.8785453365  SOLV      6903            0.0000000000
     20823      6914  TIP3      H2            -21.9822603985       17.9932242534        9.6582553365  SOLV      6903            0.0000000000
     20824      6915  TIP3      OH2           -19.3474603985       30.5465942534       14.3800353365  SOLV      6904            0.0000000000
     20825      6915  TIP3      H1            -20.1682103985       30.7212442534       13.9195053365  SOLV      6904            0.0000000000
     20826      6915  TIP3      H2            -19.5996803985       30.4730642534       15.3004753365  SOLV      6904            0.0000000000
     20827      6916  TIP3      OH2           -16.3931703985       31.5207142534       10.6384353365  SOLV      6905            0.0000000000
     20828      6916  TIP3      H1            -16.8180603985       32.3305642534       10.3558953365  SOLV      6905            0.0000000000
     20829      6916  TIP3      H2            -15.4888903985       31.6061242534       10.3364153365  SOLV      6905            0.0000000000
     20830      6917  TIP3      OH2           -12.0820303985       32.9197142534       13.5978053365  SOLV      6906            0.0000000000
     20831      6917  TIP3      H1            -11.8972803985       32.5863242534       14.4758353365  SOLV      6906            0.0000000000
     20832      6917  TIP3      H2            -11.2355803985       33.2295742534       13.2757253365  SOLV      6906            0.0000000000
     20833      6918  TIP3      OH2            -9.7369903985       34.2056042534       12.8419453365  SOLV      6907            0.0000000000
     20834      6918  TIP3      H1             -9.0601003985       33.5728342534       12.6018653365  SOLV      6907            0.0000000000
     20835      6918  TIP3      H2             -9.4151103985       34.6066542534       13.6492753365  SOLV      6907            0.0000000000
     20836      6919  TIP3      OH2            -4.8196103985       16.7951542534       11.9214453365  SOLV      6908            0.0000000000
     20837      6919  TIP3      H1             -5.6322603985       17.1201842534       11.5339153365  SOLV      6908            0.0000000000
     20838      6919  TIP3      H2             -4.5867603985       16.0350042534       11.3883553365  SOLV      6908            0.0000000000
     20839      6920  TIP3      OH2           -18.9915003985       34.7771042534       10.6859653365  SOLV      6909            0.0000000000
     20840      6920  TIP3      H1            -19.7118603985       35.2172042534       10.2347353365  SOLV      6909            0.0000000000
     20841      6920  TIP3      H2            -19.3571003985       34.5265742534       11.5343653365  SOLV      6909            0.0000000000
     20842      6921  TIP3      OH2           -16.5242403985       34.3774942534        9.7156853365  SOLV      6910            0.0000000000
     20843      6921  TIP3      H1            -17.3890203985       34.4493442534       10.1196953365  SOLV      6910            0.0000000000
     20844      6921  TIP3      H2            -16.5793403985       34.9242242534        8.9319353365  SOLV      6910            0.0000000000
     20845      6922  TIP3      OH2           -11.8136803985       34.2653842534        8.8912853365  SOLV      6911            0.0000000000
     20846      6922  TIP3      H1            -12.2702803985       34.7943542534        8.2371253365  SOLV      6911            0.0000000000
     20847      6922  TIP3      H2            -11.6508803985       34.8685242534        9.6165153365  SOLV      6911            0.0000000000
     20848      6923  TIP3      OH2            -9.4860503985       33.1433442534        9.8363153365  SOLV      6912            0.0000000000
     20849      6923  TIP3      H1            -10.3906803985       33.3083642534        9.5705253365  SOLV      6912            0.0000000000
     20850      6923  TIP3      H2             -9.0571903985       33.9965642534        9.7706553365  SOLV      6912            0.0000000000
     20851      6924  TIP3      OH2            -6.8818603985       34.7132542534       10.1310953365  SOLV      6913            0.0000000000
     20852      6924  TIP3      H1             -7.0636603985       35.6291442534        9.9205853365  SOLV      6913            0.0000000000
     20853      6924  TIP3      H2             -6.7050803985       34.3029642534        9.2845553365  SOLV      6913            0.0000000000
     20854      6925  TIP3      OH2           -19.5766903985       33.4003542534        7.5961453365  SOLV      6914            0.0000000000
     20855      6925  TIP3      H1            -19.5950903985       32.9748642534        8.4533753365  SOLV      6914            0.0000000000
     20856      6925  TIP3      H2            -18.7719003985       33.0818542534        7.1873653365  SOLV      6914            0.0000000000
     20857      6926  TIP3      OH2           -17.4353803985       32.1102242534        6.2511353365  SOLV      6915            0.0000000000
     20858      6926  TIP3      H1            -17.6543103985       31.1939642534        6.4207353365  SOLV      6915            0.0000000000
     20859      6926  TIP3      H2            -16.6111603985       32.2502642534        6.7172753365  SOLV      6915            0.0000000000
     20860      6927  TIP3      OH2           -14.8981303985       32.5801542534        7.0999353365  SOLV      6916            0.0000000000
     20861      6927  TIP3      H1            -14.6855603985       31.6920542534        6.8130253365  SOLV      6916            0.0000000000
     20862      6927  TIP3      H2            -14.8336203985       32.5459242534        8.0543353365  SOLV      6916            0.0000000000
     20863      6928  TIP3      OH2           -11.3897603985       18.2442142534        6.2442653365  SOLV      6917            0.0000000000
     20864      6928  TIP3      H1            -12.0640803985       17.6147742534        6.4998453365  SOLV      6917            0.0000000000
     20865      6928  TIP3      H2            -10.8258403985       17.7601042534        5.6410553365  SOLV      6917            0.0000000000
     20866      6929  TIP3      OH2            -6.2470403985       16.3516142534        6.3569753365  SOLV      6918            0.0000000000
     20867      6929  TIP3      H1             -5.6432803985       16.8991542534        5.8550753365  SOLV      6918            0.0000000000
     20868      6929  TIP3      H2             -7.1168403985       16.6706542534        6.1163853365  SOLV      6918            0.0000000000
     20869      6930  TIP3      OH2            -4.5200003985       17.4904842534        4.6900653365  SOLV      6919            0.0000000000
     20870      6930  TIP3      H1             -3.9082503985       16.9760542534        4.1634253365  SOLV      6919            0.0000000000
     20871      6930  TIP3      H2             -4.1376603985       18.3676942534        4.7135053365  SOLV      6919            0.0000000000
     20872      6931  TIP3      OH2           -19.0630103985       16.8782442534        4.0662553365  SOLV      6920            0.0000000000
     20873      6931  TIP3      H1            -19.8400303985       16.6437342534        3.5588453365  SOLV      6920            0.0000000000
     20874      6931  TIP3      H2            -18.5326503985       16.0814542534        4.0750553365  SOLV      6920            0.0000000000
     20875      6932  TIP3      OH2           -20.2266703985       16.6760542534       -0.1301346635  SOLV      6921            0.0000000000
     20876      6932  TIP3      H1            -19.7876003985       17.2871042534       -0.7217846635  SOLV      6921            0.0000000000
     20877      6932  TIP3      H2            -20.8604303985       17.2144642534        0.3438653365  SOLV      6921            0.0000000000
     20878      6933  TIP3      OH2           -14.4837503985       16.8049542534        3.8795653365  SOLV      6922            0.0000000000
     20879      6933  TIP3      H1            -13.6094103985       17.1933842534        3.8499953365  SOLV      6922            0.0000000000
     20880      6933  TIP3      H2            -14.6196703985       16.5897342534        4.8022853365  SOLV      6922            0.0000000000
     20881      6934  TIP3      OH2            -8.9269103985       16.8349342534        5.5287353365  SOLV      6923            0.0000000000
     20882      6934  TIP3      H1             -8.8507503985       16.9300942534        4.5793353365  SOLV      6923            0.0000000000
     20883      6934  TIP3      H2             -9.2019903985       15.9272242534        5.6576453365  SOLV      6923            0.0000000000
     20884      6935  TIP3      OH2            -7.5736503985       16.8607142534        1.2212353365  SOLV      6924            0.0000000000
     20885      6935  TIP3      H1             -8.2765403985       17.4756342534        1.0113753365  SOLV      6924            0.0000000000
     20886      6935  TIP3      H2             -8.0185103985       16.0233842534        1.3523253365  SOLV      6924            0.0000000000
     20887      6936  TIP3      OH2           -20.3257203985       32.6242742534        0.7673753365  SOLV      6925            0.0000000000
     20888      6936  TIP3      H1            -21.0107303985       32.5861642534        0.0998853365  SOLV      6925            0.0000000000
     20889      6936  TIP3      H2            -20.3220003985       33.5370342534        1.0555853365  SOLV      6925            0.0000000000
     20890      6937  TIP3      OH2           -18.3657603985       18.5922042534       -1.6877246635  SOLV      6926            0.0000000000
     20891      6937  TIP3      H1            -17.8744203985       17.9624442534       -2.2151746635  SOLV      6926            0.0000000000
     20892      6937  TIP3      H2            -17.7421303985       18.8881442534       -1.0246046635  SOLV      6926            0.0000000000
     20893      6938  TIP3      OH2           -13.3397503985       18.8853542534        0.7693253365  SOLV      6927            0.0000000000
     20894      6938  TIP3      H1            -13.1616203985       18.2386742534        1.4521853365  SOLV      6927            0.0000000000
     20895      6938  TIP3      H2            -13.3931303985       19.7191242534        1.2364353365  SOLV      6927            0.0000000000
     20896      6939  TIP3      OH2           -11.4613703985       33.8337642534       -0.8350046635  SOLV      6928            0.0000000000
     20897      6939  TIP3      H1            -10.5953503985       34.2005042534       -1.0131846635  SOLV      6928            0.0000000000
     20898      6939  TIP3      H2            -11.7080903985       33.3945642534       -1.6489246635  SOLV      6928            0.0000000000
     20899      6940  TIP3      OH2            -4.7524103985       33.3967942534        1.8441053365  SOLV      6929            0.0000000000
     20900      6940  TIP3      H1             -4.9467003985       32.6490042534        1.2790653365  SOLV      6929            0.0000000000
     20901      6940  TIP3      H2             -4.7914003985       34.1548042534        1.2608953365  SOLV      6929            0.0000000000
     20902      6941  TIP3      OH2           -19.1052103985       17.3924342534       13.5838753365  SOLV      6930            0.0000000000
     20903      6941  TIP3      H1            -19.4713903985       16.6266942534       14.0263453365  SOLV      6930            0.0000000000
     20904      6941  TIP3      H2            -18.1923603985       17.4214542534       13.8703853365  SOLV      6930            0.0000000000
     20905      6942  TIP3      OH2           -17.1321303985       16.7428742534       15.1195853365  SOLV      6931            0.0000000000
     20906      6942  TIP3      H1            -16.2337703985       16.4688942534       14.9349253365  SOLV      6931            0.0000000000
     20907      6942  TIP3      H2            -17.5188203985       16.0004742534       15.5838453365  SOLV      6931            0.0000000000
     20908      6943  TIP3      OH2           -18.5076003985       33.5443542534       -2.2074146635  SOLV      6932            0.0000000000
     20909      6943  TIP3      H1            -18.7751403985       33.8306442534       -1.3341046635  SOLV      6932            0.0000000000
     20910      6943  TIP3      H2            -17.7363403985       32.9982742534       -2.0551646635  SOLV      6932            0.0000000000
     20911      6944  TIP3      OH2            -8.7109003985       16.0754042534       15.3018653365  SOLV      6933            0.0000000000
     20912      6944  TIP3      H1             -8.6341803985       15.6494742534       16.1556353365  SOLV      6933            0.0000000000
     20913      6944  TIP3      H2             -7.8172403985       16.0888742534       14.9592153365  SOLV      6933            0.0000000000
     20914      6945  TIP3      OH2            -5.5347903985       32.1480342534       13.9942853365  SOLV      6934            0.0000000000
     20915      6945  TIP3      H1             -6.3166003985       31.9618342534       13.4743453365  SOLV      6934            0.0000000000
     20916      6945  TIP3      H2             -5.6068003985       33.0774642534       14.2115353365  SOLV      6934            0.0000000000
     20917      6946  TIP3      OH2             8.8712496015       26.0344742534        4.0250053365  SOLV      6935            0.0000000000
     20918      6946  TIP3      H1              8.9603596015       26.9782942534        3.8927153365  SOLV      6935            0.0000000000
     20919      6946  TIP3      H2              8.2330096015       25.7591142534        3.3669453365  SOLV      6935            0.0000000000
     20920      6947  TIP3      OH2             7.8043796015       25.2895442534        7.4438253365  SOLV      6936            0.0000000000
     20921      6947  TIP3      H1              7.7661296015       24.6431742534        8.1487853365  SOLV      6936            0.0000000000
     20922      6947  TIP3      H2              7.4820296015       24.8229842534        6.6726953365  SOLV      6936            0.0000000000
     20923      6948  TIP3      OH2             0.1728796015       24.9037542534        9.0368153365  SOLV      6937            0.0000000000
     20924      6948  TIP3      H1              0.2140896015       24.2780842534        9.7600553365  SOLV      6937            0.0000000000
     20925      6948  TIP3      H2              0.8756496015       25.5276142534        9.2188553365  SOLV      6937            0.0000000000
     20926      6949  TIP3      OH2            11.5103996015       28.2285842534        5.7453353365  SOLV      6938            0.0000000000
     20927      6949  TIP3      H1             11.0696696015       27.5081842534        6.1958953365  SOLV      6938            0.0000000000
     20928      6949  TIP3      H2             11.4973696015       28.9493042534        6.3751053365  SOLV      6938            0.0000000000
     20929      6950  TIP3      OH2             1.0961896015       29.3536442534        7.5717253365  SOLV      6939            0.0000000000
     20930      6950  TIP3      H1              0.7267096015       28.5516942534        7.2021553365  SOLV      6939            0.0000000000
     20931      6950  TIP3      H2              2.0372996015       29.1851342534        7.6180653365  SOLV      6939            0.0000000000
     20932      6951  TIP3      OH2            -2.2937603985       23.0139042534        2.9646053365  SOLV      6940            0.0000000000
     20933      6951  TIP3      H1             -2.7414203985       23.8597742534        2.9462553365  SOLV      6940            0.0000000000
     20934      6951  TIP3      H2             -2.8546403985       22.4343242534        2.4491153365  SOLV      6940            0.0000000000
     20935      6952  TIP3      OH2            -1.5831503985       25.1758642534        5.0904053365  SOLV      6941            0.0000000000
     20936      6952  TIP3      H1             -1.3698003985       24.4060242534        5.6177053365  SOLV      6941            0.0000000000
     20937      6952  TIP3      H2             -0.8453903985       25.2655342534        4.4871653365  SOLV      6941            0.0000000000
     20938      6953  TIP3      OH2             8.6219496015       33.3327542534        5.9573753365  SOLV      6942            0.0000000000
     20939      6953  TIP3      H1              9.2415896015       32.6562242534        5.6842953365  SOLV      6942            0.0000000000
     20940      6953  TIP3      H2              8.4136896015       33.1148342534        6.8658653365  SOLV      6942            0.0000000000
     20941      6954  TIP3      OH2             6.1938196015       27.7216842534        7.8499253365  SOLV      6943            0.0000000000
     20942      6954  TIP3      H1              6.4976096015       27.0358242534        7.2553353365  SOLV      6943            0.0000000000
     20943      6954  TIP3      H2              6.9152196015       27.8405542534        8.4677253365  SOLV      6943            0.0000000000
     20944      6955  TIP3      OH2            14.8567996015       19.3232142534        8.7105453365  SOLV      6944            0.0000000000
     20945      6955  TIP3      H1             14.9060196015       19.9333342534        9.4464553365  SOLV      6944            0.0000000000
     20946      6955  TIP3      H2             15.2823096015       19.7843042534        7.9876553365  SOLV      6944            0.0000000000
     20947      6956  TIP3      OH2             9.3345196015       22.1159242534        8.1774053365  SOLV      6945            0.0000000000
     20948      6956  TIP3      H1              9.4771096015       21.1696242534        8.1975653365  SOLV      6945            0.0000000000
     20949      6956  TIP3      H2              9.2284196015       22.3229042534        7.2488953365  SOLV      6945            0.0000000000
     20950      6957  TIP3      OH2             2.4893496015       20.2175642534        5.4498853365  SOLV      6946            0.0000000000
     20951      6957  TIP3      H1              2.5324596015       21.0774142534        5.0315153365  SOLV      6946            0.0000000000
     20952      6957  TIP3      H2              2.0317596015       19.6650342534        4.8162053365  SOLV      6946            0.0000000000
     20953      6958  TIP3      OH2            10.2116196015       20.3481242534        3.8507153365  SOLV      6947            0.0000000000
     20954      6958  TIP3      H1             10.8580496015       20.0194442534        4.4754753365  SOLV      6947            0.0000000000
     20955      6958  TIP3      H2             10.7215596015       20.8660242534        3.2278553365  SOLV      6947            0.0000000000
     20956      6959  TIP3      OH2            -0.8905003985       22.6141442534        6.2120253365  SOLV      6948            0.0000000000
     20957      6959  TIP3      H1             -0.2368403985       22.0643142534        6.6440353365  SOLV      6948            0.0000000000
     20958      6959  TIP3      H2             -0.8665703985       22.3400442534        5.2952253365  SOLV      6948            0.0000000000
     20959      6960  TIP3      OH2             4.2659496015       24.1642742534        5.4271753365  SOLV      6949            0.0000000000
     20960      6960  TIP3      H1              4.8820496015       23.6378142534        5.9365753365  SOLV      6949            0.0000000000
     20961      6960  TIP3      H2              3.6798296015       23.5241442534        5.0235353365  SOLV      6949            0.0000000000
     20962      6961  TIP3      OH2            15.2482596015       20.8011342534       10.9465253365  SOLV      6950            0.0000000000
     20963      6961  TIP3      H1             14.5597196015       21.4592042534       10.8511853365  SOLV      6950            0.0000000000
     20964      6961  TIP3      H2             15.2637196015       20.6039242534       11.8830653365  SOLV      6950            0.0000000000
     20965      6962  TIP3      OH2             1.2995396015       19.1354042534        9.5239653365  SOLV      6951            0.0000000000
     20966      6962  TIP3      H1              1.0807096015       19.6654642534        8.7575653365  SOLV      6951            0.0000000000
     20967      6962  TIP3      H2              0.6316296015       19.3619542534       10.1711053365  SOLV      6951            0.0000000000
     20968      6963  TIP3      OH2             8.6685196015       28.6355142534        3.0678753365  SOLV      6952            0.0000000000
     20969      6963  TIP3      H1              8.3730296015       28.3127442534        2.2165653365  SOLV      6952            0.0000000000
     20970      6963  TIP3      H2              8.3442996015       29.5351842534        3.1091353365  SOLV      6952            0.0000000000
     20971      6964  TIP3      OH2             3.8686796015       26.8109742534        9.8113353365  SOLV      6953            0.0000000000
     20972      6964  TIP3      H1              3.1285896015       27.4091242534        9.9148553365  SOLV      6953            0.0000000000
     20973      6964  TIP3      H2              4.5826296015       27.3649342534        9.4956953365  SOLV      6953            0.0000000000
     20974      6965  TIP3      OH2            11.9754596015       19.6390542534        5.8313053365  SOLV      6954            0.0000000000
     20975      6965  TIP3      H1             11.7602596015       18.8733942534        6.3639053365  SOLV      6954            0.0000000000
     20976      6965  TIP3      H2             12.6311996015       20.1115142534        6.3441553365  SOLV      6954            0.0000000000
     20977      6966  TIP3      OH2             0.8932696015       21.0275842534        7.4761853365  SOLV      6955            0.0000000000
     20978      6966  TIP3      H1              1.5068996015       21.6603442534        7.8494253365  SOLV      6955            0.0000000000
     20979      6966  TIP3      H2              1.4053396015       20.5550842534        6.8198753365  SOLV      6955            0.0000000000
     20980      6967  TIP3      OH2             2.2761096015       28.7752742534       10.5984853365  SOLV      6956            0.0000000000
     20981      6967  TIP3      H1              2.2708696015       29.6546242534       10.2204153365  SOLV      6956            0.0000000000
     20982      6967  TIP3      H2              1.4225196015       28.6916842534       11.0234753365  SOLV      6956            0.0000000000
     20983      6968  TIP3      OH2            -1.6028003985       28.4460642534        1.3804153365  SOLV      6957            0.0000000000
     20984      6968  TIP3      H1             -1.8747103985       28.6751642534        0.4917053365  SOLV      6957            0.0000000000
     20985      6968  TIP3      H2             -1.5572303985       29.2839442534        1.8409453365  SOLV      6957            0.0000000000
     20986      6969  TIP3      OH2            12.0221696015       30.0676542534        8.0932653365  SOLV      6958            0.0000000000
     20987      6969  TIP3      H1             11.0805396015       30.1260442534        8.2549553365  SOLV      6958            0.0000000000
     20988      6969  TIP3      H2             12.2987796015       30.9737042534        7.9562353365  SOLV      6958            0.0000000000
     20989      6970  TIP3      OH2            12.3228696015       18.3541842534        9.5106553365  SOLV      6959            0.0000000000
     20990      6970  TIP3      H1             11.5867896015       18.9648942534        9.4727853365  SOLV      6959            0.0000000000
     20991      6970  TIP3      H2             13.0062696015       18.7690842534        8.9842953365  SOLV      6959            0.0000000000
     20992      6971  TIP3      OH2             5.3260096015       16.4409142534        6.9764553365  SOLV      6960            0.0000000000
     20993      6971  TIP3      H1              5.2084296015       15.4925142534        6.9222853365  SOLV      6960            0.0000000000
     20994      6971  TIP3      H2              4.4710196015       16.7735242534        7.2495653365  SOLV      6960            0.0000000000
     20995      6972  TIP3      OH2            10.2742896015       31.8490042534        4.7184253365  SOLV      6961            0.0000000000
     20996      6972  TIP3      H1             10.6995196015       31.1417942534        4.2333853365  SOLV      6961            0.0000000000
     20997      6972  TIP3      H2             10.5912896015       32.6502742534        4.3016453365  SOLV      6961            0.0000000000
     20998      6973  TIP3      OH2            11.4339396015       29.7498542534        3.2270853365  SOLV      6962            0.0000000000
     20999      6973  TIP3      H1             11.1764196015       29.0598642534        2.6156753365  SOLV      6962            0.0000000000
     21000      6973  TIP3      H2             11.5050196015       29.3069742534        4.0726753365  SOLV      6962            0.0000000000
     21001      6974  TIP3      OH2            13.1199596015       28.3165242534       11.7044353365  SOLV      6963            0.0000000000
     21002      6974  TIP3      H1             13.2595896015       27.7247742534       10.9651353365  SOLV      6963            0.0000000000
     21003      6974  TIP3      H2             13.2872396015       29.1891142534       11.3483153365  SOLV      6963            0.0000000000
     21004      6975  TIP3      OH2             7.5924996015       25.2784742534        1.4770353365  SOLV      6964            0.0000000000
     21005      6975  TIP3      H1              6.8810496015       25.8134442534        1.1250853365  SOLV      6964            0.0000000000
     21006      6975  TIP3      H2              8.2834596015       25.3336842534        0.8169253365  SOLV      6964            0.0000000000
     21007      6976  TIP3      OH2             7.6464196015       23.7359042534       -1.4844646635  SOLV      6965            0.0000000000
     21008      6976  TIP3      H1              8.3474096015       23.7585942534       -0.8330646635  SOLV      6965            0.0000000000
     21009      6976  TIP3      H2              7.9487096015       23.1078742534       -2.1405346635  SOLV      6965            0.0000000000
     21010      6977  TIP3      OH2            14.9618896015       24.6563242534        9.7704753365  SOLV      6966            0.0000000000
     21011      6977  TIP3      H1             14.3092996015       25.3508842534        9.8595653365  SOLV      6966            0.0000000000
     21012      6977  TIP3      H2             15.4269196015       24.8664142534        8.9606353365  SOLV      6966            0.0000000000
     21013      6978  TIP3      OH2            10.9982696015       25.4878042534        2.4286253365  SOLV      6967            0.0000000000
     21014      6978  TIP3      H1             10.2663696015       25.7161742534        3.0016853365  SOLV      6967            0.0000000000
     21015      6978  TIP3      H2             11.4454896015       24.7740742534        2.8833753365  SOLV      6967            0.0000000000
     21016      6979  TIP3      OH2            10.8956196015       23.6620642534       11.4963253365  SOLV      6968            0.0000000000
     21017      6979  TIP3      H1             10.9755296015       24.4255042534       12.0681753365  SOLV      6968            0.0000000000
     21018      6979  TIP3      H2             10.2943896015       23.9413042534       10.8058353365  SOLV      6968            0.0000000000
     21019      6980  TIP3      OH2             2.6436396015       26.1184242534        4.3111253365  SOLV      6969            0.0000000000
     21020      6980  TIP3      H1              2.3131596015       25.7477642534        3.4928253365  SOLV      6969            0.0000000000
     21021      6980  TIP3      H2              3.2320496015       25.4478242534        4.6579553365  SOLV      6969            0.0000000000
     21022      6981  TIP3      OH2             4.0103896015       29.5464842534        6.9923453365  SOLV      6970            0.0000000000
     21023      6981  TIP3      H1              3.9155196015       28.9677942534        6.2358053365  SOLV      6970            0.0000000000
     21024      6981  TIP3      H2              4.7397496015       29.1750542534        7.4886253365  SOLV      6970            0.0000000000
     21025      6982  TIP3      OH2             3.0101896015       24.8869842534        7.9446253365  SOLV      6971            0.0000000000
     21026      6982  TIP3      H1              3.5754396015       25.0084042534        7.1817453365  SOLV      6971            0.0000000000
     21027      6982  TIP3      H2              3.3290796015       25.5244842534        8.5834753365  SOLV      6971            0.0000000000
     21028      6983  TIP3      OH2             9.3194096015       30.3901742534        8.6786753365  SOLV      6972            0.0000000000
     21029      6983  TIP3      H1              9.0790696015       31.0524842534        9.3265953365  SOLV      6972            0.0000000000
     21030      6983  TIP3      H2              9.1212296015       29.5556942534        9.1036353365  SOLV      6972            0.0000000000
     21031      6984  TIP3      OH2             3.8902596015       29.2862542534       12.6618153365  SOLV      6973            0.0000000000
     21032      6984  TIP3      H1              3.5790096015       30.0685742534       13.1171353365  SOLV      6973            0.0000000000
     21033      6984  TIP3      H2              3.2402796015       29.1331642534       11.9760153365  SOLV      6973            0.0000000000
     21034      6985  TIP3      OH2             9.8692196015       24.6500942534        0.1137453365  SOLV      6974            0.0000000000
     21035      6985  TIP3      H1             10.4487696015       24.8001242534        0.8606353365  SOLV      6974            0.0000000000
     21036      6985  TIP3      H2             10.2832196015       25.1208342534       -0.6096146635  SOLV      6974            0.0000000000
     21037      6986  TIP3      OH2             0.8102496015       25.4843642534       11.8903853365  SOLV      6975            0.0000000000
     21038      6986  TIP3      H1              0.8805696015       26.1350442534       12.5888853365  SOLV      6975            0.0000000000
     21039      6986  TIP3      H2             -0.0805303985       25.5871142534       11.5554753365  SOLV      6975            0.0000000000
     21040      6987  TIP3      OH2             7.5957096015       31.3869442534        3.5490553365  SOLV      6976            0.0000000000
     21041      6987  TIP3      H1              8.0694696015       31.6825742534        4.3264753365  SOLV      6976            0.0000000000
     21042      6987  TIP3      H2              7.0326396015       32.1251042534        3.3160153365  SOLV      6976            0.0000000000
     21043      6988  TIP3      OH2             2.1298496015       31.3577542534       13.4251953365  SOLV      6977            0.0000000000
     21044      6988  TIP3      H1              2.1373796015       31.2217242534       12.4777453365  SOLV      6977            0.0000000000
     21045      6988  TIP3      H2              1.2138896015       31.2405642534       13.6771953365  SOLV      6977            0.0000000000
     21046      6989  TIP3      OH2            13.5680596015       16.4001342534       -0.0732846635  SOLV      6978            0.0000000000
     21047      6989  TIP3      H1             12.6681296015       16.5390342534        0.2217753365  SOLV      6978            0.0000000000
     21048      6989  TIP3      H2             13.8198996015       17.2315942534       -0.4751146635  SOLV      6978            0.0000000000
     21049      6990  TIP3      OH2             1.6339096015       25.1878542534        1.9004053365  SOLV      6979            0.0000000000
     21050      6990  TIP3      H1              1.3420396015       25.9560242534        1.4095353365  SOLV      6979            0.0000000000
     21051      6990  TIP3      H2              0.9594296015       24.5284742534        1.7375453365  SOLV      6979            0.0000000000
     21052      6991  TIP3      OH2            14.7571996015       30.7663742534       -1.6968946635  SOLV      6980            0.0000000000
     21053      6991  TIP3      H1             14.8305496015       31.7053942534       -1.5263646635  SOLV      6980            0.0000000000
     21054      6991  TIP3      H2             15.6627096015       30.4612342534       -1.7531646635  SOLV      6980            0.0000000000
     21055      6992  TIP3      OH2            -2.2730803985       27.5507742534       10.7153853365  SOLV      6981            0.0000000000
     21056      6992  TIP3      H1             -2.7742403985       27.5227142534        9.9003553365  SOLV      6981            0.0000000000
     21057      6992  TIP3      H2             -2.2677103985       26.6450942534       11.0251153365  SOLV      6981            0.0000000000
     21058      6993  TIP3      OH2            -2.5228103985       30.3311542534        7.5994053365  SOLV      6982            0.0000000000
     21059      6993  TIP3      H1             -1.5767503985       30.1868542534        7.5803553365  SOLV      6982            0.0000000000
     21060      6993  TIP3      H2             -2.6351803985       31.1154342534        8.1365253365  SOLV      6982            0.0000000000
     21061      6994  TIP3      OH2            15.6750396015       30.9971242534       13.2817753365  SOLV      6983            0.0000000000
     21062      6994  TIP3      H1             15.6257196015       30.0419342534       13.2445353365  SOLV      6983            0.0000000000
     21063      6994  TIP3      H2             14.8482696015       31.2646542534       13.6831553365  SOLV      6983            0.0000000000
     21064      6995  TIP3      OH2             6.6534396015       30.5710442534       12.1579153365  SOLV      6984            0.0000000000
     21065      6995  TIP3      H1              6.7408996015       31.3975042534       12.6328253365  SOLV      6984            0.0000000000
     21066      6995  TIP3      H2              5.7899496015       30.2414242534       12.4068453365  SOLV      6984            0.0000000000
     21067      6996  TIP3      OH2             7.0680196015       34.3434142534        1.9639753365  SOLV      6985            0.0000000000
     21068      6996  TIP3      H1              6.9926196015       34.2221342534        1.0174953365  SOLV      6985            0.0000000000
     21069      6996  TIP3      H2              7.1008896015       35.2926842534        2.0824353365  SOLV      6985            0.0000000000
     21070      6997  TIP3      OH2             0.7213996015       33.1321142534        3.7448753365  SOLV      6986            0.0000000000
     21071      6997  TIP3      H1              0.8734396015       32.7841542534        4.6235253365  SOLV      6986            0.0000000000
     21072      6997  TIP3      H2             -0.1295603985       32.7758442534        3.4895953365  SOLV      6986            0.0000000000
     21073      6998  TIP3      OH2            10.1696196015       33.4974342534       -1.0337846635  SOLV      6987            0.0000000000
     21074      6998  TIP3      H1             10.5444596015       32.7530442534       -1.5045246635  SOLV      6987            0.0000000000
     21075      6998  TIP3      H2             10.1739896015       33.2274942534       -0.1154546635  SOLV      6987            0.0000000000
     21076      6999  TIP3      OH2             9.8384296015       33.4231442534        1.7154353365  SOLV      6988            0.0000000000
     21077      6999  TIP3      H1              8.9034096015       33.5233342534        1.8941353365  SOLV      6988            0.0000000000
     21078      6999  TIP3      H2             10.1186196015       32.7137442534        2.2937553365  SOLV      6988            0.0000000000
     21079      7000  TIP3      OH2            12.8270196015       22.4903742534       13.7619953365  SOLV      6989            0.0000000000
     21080      7000  TIP3      H1             12.4196996015       22.9709342534       13.0413253365  SOLV      6989            0.0000000000
     21081      7000  TIP3      H2             12.8675896015       21.5849742534       13.4540753365  SOLV      6989            0.0000000000
     21082      7001  TIP3      OH2            -0.0240303985       28.8743142534       11.7586653365  SOLV      6990            0.0000000000
     21083      7001  TIP3      H1              0.1920996015       28.5128742534       12.6182453365  SOLV      6990            0.0000000000
     21084      7001  TIP3      H2             -0.8795603985       28.4996942534       11.5490153365  SOLV      6990            0.0000000000
     21085      7002  TIP3      OH2             2.5947696015       17.3443642534        7.7540853365  SOLV      6991            0.0000000000
     21086      7002  TIP3      H1              1.7331396015       17.2571842534        7.3463753365  SOLV      6991            0.0000000000
     21087      7002  TIP3      H2              2.5723396015       18.2003742534        8.1818453365  SOLV      6991            0.0000000000
     21088      7003  TIP3      OH2             7.2575496015       17.0664042534       11.1287853365  SOLV      6992            0.0000000000
     21089      7003  TIP3      H1              7.6778596015       16.6511142534       11.8818453365  SOLV      6992            0.0000000000
     21090      7003  TIP3      H2              6.3245096015       16.8877342534       11.2459853365  SOLV      6992            0.0000000000
     21091      7004  TIP3      OH2            10.5840396015       20.8219242534       11.9822353365  SOLV      6993            0.0000000000
     21092      7004  TIP3      H1             10.0699896015       20.6961442534       12.7798353365  SOLV      6993            0.0000000000
     21093      7004  TIP3      H2             10.4285096015       21.7342342534       11.7378553365  SOLV      6993            0.0000000000
     21094      7005  TIP3      OH2            11.3465296015       25.6829242534       -2.2564646635  SOLV      6994            0.0000000000
     21095      7005  TIP3      H1             11.3886096015       25.4603142534       -3.1864646635  SOLV      6994            0.0000000000
     21096      7005  TIP3      H2             12.1957396015       26.0816342534       -2.0664746635  SOLV      6994            0.0000000000
     21097      7006  TIP3      OH2             6.9192796015       19.5587442534       -1.5861346635  SOLV      6995            0.0000000000
     21098      7006  TIP3      H1              6.6657596015       19.5779042534       -0.6633246635  SOLV      6995            0.0000000000
     21099      7006  TIP3      H2              6.6624896015       18.6872842534       -1.8875146635  SOLV      6995            0.0000000000
     21100      7007  TIP3      OH2             2.6857796015       22.3098142534        8.8491053365  SOLV      6996            0.0000000000
     21101      7007  TIP3      H1              2.0439896015       22.2695442534        9.5581153365  SOLV      6996            0.0000000000
     21102      7007  TIP3      H2              2.7229796015       23.2362842534        8.6114053365  SOLV      6996            0.0000000000
     21103      7008  TIP3      OH2             2.6826896015       22.5308242534        3.7611053365  SOLV      6997            0.0000000000
     21104      7008  TIP3      H1              1.7899796015       22.1904342534        3.7024853365  SOLV      6997            0.0000000000
     21105      7008  TIP3      H2              3.1333496015       22.1539142534        3.0054253365  SOLV      6997            0.0000000000
     21106      7009  TIP3      OH2             8.2182396015       22.9468542534        2.5781853365  SOLV      6998            0.0000000000
     21107      7009  TIP3      H1              7.8092696015       23.7617142534        2.2866653365  SOLV      6998            0.0000000000
     21108      7009  TIP3      H2              8.9388596015       22.8068642534        1.9638953365  SOLV      6998            0.0000000000
     21109      7010  TIP3      OH2             7.3203996015       23.1224942534       14.0662553365  SOLV      6999            0.0000000000
     21110      7010  TIP3      H1              6.7577796015       22.4176542534       14.3870353365  SOLV      6999            0.0000000000
     21111      7010  TIP3      H2              8.1467396015       23.0016842534       14.5340153365  SOLV      6999            0.0000000000
     21112      7011  TIP3      OH2             9.2230096015       22.3928942534        5.3921553365  SOLV      7000            0.0000000000
     21113      7011  TIP3      H1              9.0274596015       22.9985742534        4.6772153365  SOLV      7000            0.0000000000
     21114      7011  TIP3      H2              9.4042696015       21.5594142534        4.9577853365  SOLV      7000            0.0000000000
     21115      7012  TIP3      OH2             0.4358296015       22.6301642534       10.7163053365  SOLV      7001            0.0000000000
     21116      7012  TIP3      H1              0.3977696015       23.0303242534       11.5850153365  SOLV      7001            0.0000000000
     21117      7012  TIP3      H2             -0.0550603985       21.8134042534       10.8065953365  SOLV      7001            0.0000000000
     21118      7013  TIP3      OH2             3.8015696015       20.0043942534       -2.4850946635  SOLV      7002            0.0000000000
     21119      7013  TIP3      H1              3.3706396015       19.5594042534       -1.7553546635  SOLV      7002            0.0000000000
     21120      7013  TIP3      H2              3.0834396015       20.3760242534       -2.9973446635  SOLV      7002            0.0000000000
     21121      7014  TIP3      OH2            -2.9560903985       19.7463442534        4.5667753365  SOLV      7003            0.0000000000
     21122      7014  TIP3      H1             -2.3253203985       19.7175542534        5.2861653365  SOLV      7003            0.0000000000
     21123      7014  TIP3      H2             -2.5066603985       19.3212142534        3.8363653365  SOLV      7003            0.0000000000
     21124      7015  TIP3      OH2            -1.6818803985       20.4925442534       -0.0091846635  SOLV      7004            0.0000000000
     21125      7015  TIP3      H1             -1.2077103985       21.0835342534       -0.5940946635  SOLV      7004            0.0000000000
     21126      7015  TIP3      H2             -2.3992403985       21.0228342534        0.3378253365  SOLV      7004            0.0000000000
     21127      7016  TIP3      OH2             8.4869296015       24.0310242534       10.0633953365  SOLV      7005            0.0000000000
     21128      7016  TIP3      H1              8.8104096015       23.3999942534        9.4204453365  SOLV      7005            0.0000000000
     21129      7016  TIP3      H2              8.0468596015       23.4962442534       10.7241353365  SOLV      7005            0.0000000000
     21130      7017  TIP3      OH2             5.2642196015       19.9585742534        4.8475153365  SOLV      7006            0.0000000000
     21131      7017  TIP3      H1              4.3533296015       20.0152542534        5.1361153365  SOLV      7006            0.0000000000
     21132      7017  TIP3      H2              5.7695096015       19.8981242534        5.6582353365  SOLV      7006            0.0000000000
     21133      7018  TIP3      OH2             0.0925596015       21.5872042534        3.6742753365  SOLV      7007            0.0000000000
     21134      7018  TIP3      H1             -0.7966403985       21.6867542534        3.3342353365  SOLV      7007            0.0000000000
     21135      7018  TIP3      H2              0.3890496015       20.7455042534        3.3280653365  SOLV      7007            0.0000000000
     21136      7019  TIP3      OH2             3.7457396015       21.5874642534        1.3307353365  SOLV      7008            0.0000000000
     21137      7019  TIP3      H1              4.6772896015       21.7164642534        1.5090453365  SOLV      7008            0.0000000000
     21138      7019  TIP3      H2              3.5307696015       22.2568942534        0.6812053365  SOLV      7008            0.0000000000
     21139      7020  TIP3      OH2             9.6694096015       19.1932042534        8.1116953365  SOLV      7009            0.0000000000
     21140      7020  TIP3      H1              8.9925696015       19.3245142534        8.7756653365  SOLV      7009            0.0000000000
     21141      7020  TIP3      H2              9.1838996015       19.0381542534        7.3014653365  SOLV      7009            0.0000000000
     21142      7021  TIP3      OH2             2.4197596015       22.7816842534       -1.1026546635  SOLV      7010            0.0000000000
     21143      7021  TIP3      H1              1.8772696015       22.4020642534       -1.7938946635  SOLV      7010            0.0000000000
     21144      7021  TIP3      H2              3.2532496015       22.9761542534       -1.5312446635  SOLV      7010            0.0000000000
     21145      7022  TIP3      OH2            12.9569196015       34.8647442534       14.3884553365  SOLV      7011            0.0000000000
     21146      7022  TIP3      H1             13.1567896015       35.2889342534       13.5539853365  SOLV      7011            0.0000000000
     21147      7022  TIP3      H2             13.6122896015       35.2085642534       14.9954953365  SOLV      7011            0.0000000000
     21148      7023  TIP3      OH2             0.5548996015       27.3388742534       13.9965053365  SOLV      7012            0.0000000000
     21149      7023  TIP3      H1              1.2871396015       27.5934642534       14.5579553365  SOLV      7012            0.0000000000
     21150      7023  TIP3      H2             -0.2252303985       27.5434142534       14.5120453365  SOLV      7012            0.0000000000
     21151      7024  TIP3      OH2             6.5841896015       22.7458742534        6.7344753365  SOLV      7013            0.0000000000
     21152      7024  TIP3      H1              7.1485296015       22.1995342534        6.1874353365  SOLV      7013            0.0000000000
     21153      7024  TIP3      H2              6.4365296015       22.2240642534        7.5232353365  SOLV      7013            0.0000000000
     21154      7025  TIP3      OH2             1.5861596015       18.8824842534        3.1529553365  SOLV      7014            0.0000000000
     21155      7025  TIP3      H1              1.2691096015       17.9800142534        3.1174953365  SOLV      7014            0.0000000000
     21156      7025  TIP3      H2              2.3675696015       18.8842242534        2.6001153365  SOLV      7014            0.0000000000
     21157      7026  TIP3      OH2             5.2107796015       21.1344842534        9.1485153365  SOLV      7015            0.0000000000
     21158      7026  TIP3      H1              4.3753096015       21.5884342534        9.2587553365  SOLV      7015            0.0000000000
     21159      7026  TIP3      H2              5.7348396015       21.4103342534        9.9005053365  SOLV      7015            0.0000000000
     21160      7027  TIP3      OH2             5.7550396015       27.3472542534        0.8331553365  SOLV      7016            0.0000000000
     21161      7027  TIP3      H1              5.0101396015       26.8397842534        0.5109453365  SOLV      7016            0.0000000000
     21162      7027  TIP3      H2              5.6207596015       27.3960542534        1.7796353365  SOLV      7016            0.0000000000
     21163      7028  TIP3      OH2            12.9049296015       26.4800742534        9.6199153365  SOLV      7017            0.0000000000
     21164      7028  TIP3      H1             13.5468096015       26.9367042534        9.0761353365  SOLV      7017            0.0000000000
     21165      7028  TIP3      H2             12.0746196015       26.5933142534        9.1573253365  SOLV      7017            0.0000000000
     21166      7029  TIP3      OH2             9.6527196015       20.1612442534       -0.9675846635  SOLV      7018            0.0000000000
     21167      7029  TIP3      H1              8.7141396015       20.2728042534       -1.1187046635  SOLV      7018            0.0000000000
     21168      7029  TIP3      H2              9.9499296015       21.0179342534       -0.6610146635  SOLV      7018            0.0000000000
     21169      7030  TIP3      OH2             7.2742496015       27.5315842534       12.0700653365  SOLV      7019            0.0000000000
     21170      7030  TIP3      H1              6.9288596015       27.1498242534       12.8770253365  SOLV      7019            0.0000000000
     21171      7030  TIP3      H2              7.0742596015       28.4649442534       12.1413553365  SOLV      7019            0.0000000000
     21172      7031  TIP3      OH2            10.3710696015       22.0285142534        0.6931553365  SOLV      7020            0.0000000000
     21173      7031  TIP3      H1             11.2629696015       21.8910142534        1.0122753365  SOLV      7020            0.0000000000
     21174      7031  TIP3      H2             10.4274296015       22.8191242534        0.1565053365  SOLV      7020            0.0000000000
     21175      7032  TIP3      OH2             0.8798696015       26.6422542534        6.6029453365  SOLV      7021            0.0000000000
     21176      7032  TIP3      H1              1.6245896015       26.6398242534        6.0015953365  SOLV      7021            0.0000000000
     21177      7032  TIP3      H2              0.9575296015       25.8186342534        7.0844553365  SOLV      7021            0.0000000000
     21178      7033  TIP3      OH2             7.8804496015       28.8056842534       -0.1413846635  SOLV      7022            0.0000000000
     21179      7033  TIP3      H1              7.5852896015       29.6324742534        0.2400953365  SOLV      7022            0.0000000000
     21180      7033  TIP3      H2              7.1774496015       28.1863742534        0.0547553365  SOLV      7022            0.0000000000
     21181      7034  TIP3      OH2            -2.1121603985       25.1029442534       11.9177953365  SOLV      7023            0.0000000000
     21182      7034  TIP3      H1             -1.8893003985       24.6849042534       12.7495453365  SOLV      7023            0.0000000000
     21183      7034  TIP3      H2             -2.7141503985       24.4904442534       11.4950753365  SOLV      7023            0.0000000000
     21184      7035  TIP3      OH2             4.9043296015       24.6199342534       14.1307653365  SOLV      7024            0.0000000000
     21185      7035  TIP3      H1              4.6084096015       24.4542342534       13.2356753365  SOLV      7024            0.0000000000
     21186      7035  TIP3      H2              5.8358496015       24.3999642534       14.1201553365  SOLV      7024            0.0000000000
     21187      7036  TIP3      OH2             9.5246096015       29.9931342534       12.0205653365  SOLV      7025            0.0000000000
     21188      7036  TIP3      H1              8.6240396015       30.1763942534       11.7529553365  SOLV      7025            0.0000000000
     21189      7036  TIP3      H2              9.5587196015       30.2520642534       12.9414453365  SOLV      7025            0.0000000000
     21190      7037  TIP3      OH2            15.2559396015       22.2379242534        0.3878253365  SOLV      7026            0.0000000000
     21191      7037  TIP3      H1             14.7015696015       21.8417242534       -0.2844246635  SOLV      7026            0.0000000000
     21192      7037  TIP3      H2             15.3562996015       23.1484442534        0.1101553365  SOLV      7026            0.0000000000
     21193      7038  TIP3      OH2            15.2191396015       28.0380942534       13.2249753365  SOLV      7027            0.0000000000
     21194      7038  TIP3      H1             14.3679896015       28.2764742534       12.8576153365  SOLV      7027            0.0000000000
     21195      7038  TIP3      H2             15.8094796015       28.0214142534       12.4716853365  SOLV      7027            0.0000000000
     21196      7039  TIP3      OH2            13.5511096015       31.0239642534        0.8530353365  SOLV      7028            0.0000000000
     21197      7039  TIP3      H1             13.1782196015       30.1983442534        1.1620953365  SOLV      7028            0.0000000000
     21198      7039  TIP3      H2             13.8284596015       30.8409042534       -0.0446246635  SOLV      7028            0.0000000000
     21199      7040  TIP3      OH2            10.7114996015       25.8319142534        7.8742253365  SOLV      7029            0.0000000000
     21200      7040  TIP3      H1              9.7831896015       25.6001042534        7.8471553365  SOLV      7029            0.0000000000
     21201      7040  TIP3      H2             11.1626096015       25.0548942534        7.5441053365  SOLV      7029            0.0000000000
     21202      7041  TIP3      OH2             3.2548096015       30.1600742534        4.0070953365  SOLV      7030            0.0000000000
     21203      7041  TIP3      H1              3.7820296015       30.9335142534        3.8069753365  SOLV      7030            0.0000000000
     21204      7041  TIP3      H2              2.3746596015       30.3849942534        3.7054953365  SOLV      7030            0.0000000000
     21205      7042  TIP3      OH2            -0.9904203985       25.0224842534       -1.4056646635  SOLV      7031            0.0000000000
     21206      7042  TIP3      H1             -0.3744303985       25.6492042534       -1.0261846635  SOLV      7031            0.0000000000
     21207      7042  TIP3      H2             -1.8521603985       25.3384642534       -1.1340146635  SOLV      7031            0.0000000000
     21208      7043  TIP3      OH2             4.6820396015       27.8230642534        3.5835253365  SOLV      7032            0.0000000000
     21209      7043  TIP3      H1              4.4410396015       28.7485042534        3.6250553365  SOLV      7032            0.0000000000
     21210      7043  TIP3      H2              3.9413996015       27.3641942534        3.9799153365  SOLV      7032            0.0000000000
     21211      7044  TIP3      OH2             5.1966996015       31.9724242534        9.8986353365  SOLV      7033            0.0000000000
     21212      7044  TIP3      H1              5.5591696015       32.8269842534        9.6650753365  SOLV      7033            0.0000000000
     21213      7044  TIP3      H2              5.7282196015       31.6805842534       10.6392653365  SOLV      7033            0.0000000000
     21214      7045  TIP3      OH2             3.3651196015       32.8448242534        3.1287453365  SOLV      7034            0.0000000000
     21215      7045  TIP3      H1              2.4151696015       32.9505642534        3.1800753365  SOLV      7034            0.0000000000
     21216      7045  TIP3      H2              3.7169296015       33.6655642534        3.4734953365  SOLV      7034            0.0000000000
     21217      7046  TIP3      OH2             8.7407796015       28.0714942534        9.5991953365  SOLV      7035            0.0000000000
     21218      7046  TIP3      H1              8.3149096015       27.8436642534       10.4255953365  SOLV      7035            0.0000000000
     21219      7046  TIP3      H2              9.3213596015       27.3326742534        9.4167253365  SOLV      7035            0.0000000000
     21220      7047  TIP3      OH2            10.9436696015       29.0005442534       -1.3269046635  SOLV      7036            0.0000000000
     21221      7047  TIP3      H1             11.2969796015       28.6205242534       -0.5225546635  SOLV      7036            0.0000000000
     21222      7047  TIP3      H2              9.9950196015       28.9070242534       -1.2399746635  SOLV      7036            0.0000000000
     21223      7048  TIP3      OH2            11.3991996015       32.6234442534       12.0686753365  SOLV      7037            0.0000000000
     21224      7048  TIP3      H1             10.7975196015       32.0677342534       11.5733053365  SOLV      7037            0.0000000000
     21225      7048  TIP3      H2             11.6805696015       33.2904242534       11.4424153365  SOLV      7037            0.0000000000
     21226      7049  TIP3      OH2            15.4471096015       33.4797942534       -1.1258846635  SOLV      7038            0.0000000000
     21227      7049  TIP3      H1             16.1908996015       34.0658442534       -1.2657246635  SOLV      7038            0.0000000000
     21228      7049  TIP3      H2             14.7529196015       34.0483742534       -0.7926446635  SOLV      7038            0.0000000000
     21229      7050  TIP3      OH2            -0.4782103985       19.8562142534       11.4759353365  SOLV      7039            0.0000000000
     21230      7050  TIP3      H1             -1.3709803985       20.1947542534       11.4083353365  SOLV      7039            0.0000000000
     21231      7050  TIP3      H2             -0.5769303985       19.0008242534       11.8940153365  SOLV      7039            0.0000000000
     21232      7051  TIP3      OH2            11.8095996015       27.6727442534        0.8998853365  SOLV      7040            0.0000000000
     21233      7051  TIP3      H1             11.5323596015       26.9446742534        1.4559953365  SOLV      7040            0.0000000000
     21234      7051  TIP3      H2             12.7368996015       27.7919442534        1.1051453365  SOLV      7040            0.0000000000
     21235      7052  TIP3      OH2            -0.8270103985       31.6606542534        9.9108753365  SOLV      7041            0.0000000000
     21236      7052  TIP3      H1             -0.6099803985       30.7288942534        9.8798453365  SOLV      7041            0.0000000000
     21237      7052  TIP3      H2             -0.5806603985       31.9351542534       10.7941553365  SOLV      7041            0.0000000000
     21238      7053  TIP3      OH2             5.0344496015       30.1121542534       -2.8799046635  SOLV      7042            0.0000000000
     21239      7053  TIP3      H1              5.2734296015       29.3639642534       -3.4270146635  SOLV      7042            0.0000000000
     21240      7053  TIP3      H2              4.7655796015       29.7243242534       -2.0471246635  SOLV      7042            0.0000000000
     21241      7054  TIP3      OH2             3.9715096015       29.6825342534       -0.4236446635  SOLV      7043            0.0000000000
     21242      7054  TIP3      H1              4.1183096015       29.1625142534        0.3664453365  SOLV      7043            0.0000000000
     21243      7054  TIP3      H2              3.9686796015       30.5892942534       -0.1170546635  SOLV      7043            0.0000000000
     21244      7055  TIP3      OH2             0.4246196015       26.9348642534        0.0868953365  SOLV      7044            0.0000000000
     21245      7055  TIP3      H1             -0.2614503985       27.2871142534        0.6538653365  SOLV      7044            0.0000000000
     21246      7055  TIP3      H2              0.9474096015       27.6978242534       -0.1596746635  SOLV      7044            0.0000000000
     21247      7056  TIP3      OH2             8.2561296015       19.5972442534       10.3657953365  SOLV      7045            0.0000000000
     21248      7056  TIP3      H1              8.9549196015       19.6711142534       11.0157653365  SOLV      7045            0.0000000000
     21249      7056  TIP3      H2              7.8752696015       18.7327442534       10.5200853365  SOLV      7045            0.0000000000
     21250      7057  TIP3      OH2             9.0406196015       19.2494142534        1.4630253365  SOLV      7046            0.0000000000
     21251      7057  TIP3      H1              9.2604496015       19.7209542534        0.6595653365  SOLV      7046            0.0000000000
     21252      7057  TIP3      H2              9.5990196015       19.6436742534        2.1330853365  SOLV      7046            0.0000000000
     21253      7058  TIP3      OH2             6.7092296015       31.3798942534        0.3257753365  SOLV      7047            0.0000000000
     21254      7058  TIP3      H1              5.8928396015       31.8768642534        0.3782053365  SOLV      7047            0.0000000000
     21255      7058  TIP3      H2              7.2388596015       31.8552442534       -0.3143446635  SOLV      7047            0.0000000000
     21256      7059  TIP3      OH2             6.2406096015       20.9772942534        2.2978653365  SOLV      7048            0.0000000000
     21257      7059  TIP3      H1              7.0528696015       21.4816142534        2.3440353365  SOLV      7048            0.0000000000
     21258      7059  TIP3      H2              5.9959096015       20.8322642534        3.2118253365  SOLV      7048            0.0000000000
     21259      7060  TIP3      OH2             6.7762496015       21.9635642534       11.4825253365  SOLV      7049            0.0000000000
     21260      7060  TIP3      H1              6.8952796015       22.5371042534       12.2395653365  SOLV      7049            0.0000000000
     21261      7060  TIP3      H2              7.4317096015       21.2755042534       11.5973053365  SOLV      7049            0.0000000000
     21262      7061  TIP3      OH2             7.1242796015       18.0585942534        3.2359753365  SOLV      7050            0.0000000000
     21263      7061  TIP3      H1              6.7776296015       18.6756542534        3.8804053365  SOLV      7050            0.0000000000
     21264      7061  TIP3      H2              7.7829696015       18.5591642534        2.7545253365  SOLV      7050            0.0000000000
     21265      7062  TIP3      OH2             4.0475396015       32.4236142534        0.3074653365  SOLV      7051            0.0000000000
     21266      7062  TIP3      H1              4.2084096015       33.2233642534       -0.1932746635  SOLV      7051            0.0000000000
     21267      7062  TIP3      H2              3.8503196015       32.7302142534        1.1925253365  SOLV      7051            0.0000000000
     21268      7063  TIP3      OH2             2.7819796015       19.1215342534       -0.0767746635  SOLV      7052            0.0000000000
     21269      7063  TIP3      H1              2.6984596015       20.0098442534        0.2698653365  SOLV      7052            0.0000000000
     21270      7063  TIP3      H2              3.6720096015       18.8562042534        0.1549053365  SOLV      7052            0.0000000000
     21271      7064  TIP3      OH2            12.9808296015       19.8705942534       12.3174953365  SOLV      7053            0.0000000000
     21272      7064  TIP3      H1             12.0644096015       20.1327642534       12.2298653365  SOLV      7053            0.0000000000
     21273      7064  TIP3      H2             13.3163296015       19.8674942534       11.4210253365  SOLV      7053            0.0000000000
     21274      7065  TIP3      OH2            11.5829296015       23.6206942534        6.4132253365  SOLV      7054            0.0000000000
     21275      7065  TIP3      H1             10.7853696015       23.2057142534        6.0847253365  SOLV      7054            0.0000000000
     21276      7065  TIP3      H2             12.0280396015       22.9300642534        6.9042753365  SOLV      7054            0.0000000000
     21277      7066  TIP3      OH2             1.0405096015       29.5487542534       -1.0163246635  SOLV      7055            0.0000000000
     21278      7066  TIP3      H1              1.6326596015       30.2482342534       -0.7400846635  SOLV      7055            0.0000000000
     21279      7066  TIP3      H2              1.4998096015       29.1157042534       -1.7358646635  SOLV      7055            0.0000000000
     21280      7067  TIP3      OH2            -0.6435703985       22.2130542534       -1.9003846635  SOLV      7056            0.0000000000
     21281      7067  TIP3      H1             -0.6883103985       23.1523642534       -1.7216846635  SOLV      7056            0.0000000000
     21282      7067  TIP3      H2             -1.5312503985       21.9775442534       -2.1701746635  SOLV      7056            0.0000000000
     21283      7068  TIP3      OH2            12.6693896015       32.8769442534        8.0355753365  SOLV      7057            0.0000000000
     21284      7068  TIP3      H1             12.5138196015       33.5553842534        7.3785053365  SOLV      7057            0.0000000000
     21285      7068  TIP3      H2             13.6020296015       32.9488742534        8.2386353365  SOLV      7057            0.0000000000
     21286      7069  TIP3      OH2             0.1646296015       16.9947142534        6.7727153365  SOLV      7058            0.0000000000
     21287      7069  TIP3      H1             -0.0643903985       17.0539642534        5.8452153365  SOLV      7058            0.0000000000
     21288      7069  TIP3      H2             -0.2780303985       16.2032642534        7.0791253365  SOLV      7058            0.0000000000
     21289      7070  TIP3      OH2            -0.9050403985       30.9354242534        2.9332953365  SOLV      7059            0.0000000000
     21290      7070  TIP3      H1             -1.7371803985       31.4076942534        2.9604353365  SOLV      7059            0.0000000000
     21291      7070  TIP3      H2             -0.3592103985       31.4451842534        2.3346053365  SOLV      7059            0.0000000000
     21292      7071  TIP3      OH2            -1.6166703985       33.5477942534       14.2630953365  SOLV      7060            0.0000000000
     21293      7071  TIP3      H1             -1.0764503985       33.3311942534       15.0230153365  SOLV      7060            0.0000000000
     21294      7071  TIP3      H2             -2.0978703985       32.7423942534       14.0733453365  SOLV      7060            0.0000000000
     21295      7072  TIP3      OH2             2.9806696015       32.4672342534       15.8835153365  SOLV      7061            0.0000000000
     21296      7072  TIP3      H1              3.7483896015       32.0083142534       16.2244353365  SOLV      7061            0.0000000000
     21297      7072  TIP3      H2              2.9592896015       32.2412142534       14.9536353365  SOLV      7061            0.0000000000
     21298      7073  TIP3      OH2             7.0726296015       31.9752942534       -2.7413046635  SOLV      7062            0.0000000000
     21299      7073  TIP3      H1              6.4287296015       31.3441542534       -2.4199346635  SOLV      7062            0.0000000000
     21300      7073  TIP3      H2              7.8344596015       31.4440942534       -2.9729546635  SOLV      7062            0.0000000000
     21301      7074  TIP3      OH2            11.6769196015       31.7922842534       -2.5075046635  SOLV      7063            0.0000000000
     21302      7074  TIP3      H1             11.9599596015       30.9978042534       -2.0548146635  SOLV      7063            0.0000000000
     21303      7074  TIP3      H2             12.4167096015       32.0253842534       -3.0683946635  SOLV      7063            0.0000000000
     21304      7075  TIP3      OH2            -1.7097203985       27.3582042534       15.2175253365  SOLV      7064            0.0000000000
     21305      7075  TIP3      H1             -1.5656703985       26.4562742534       14.9311953365  SOLV      7064            0.0000000000
     21306      7075  TIP3      H2             -2.4819803985       27.6444142534       14.7297553365  SOLV      7064            0.0000000000
     21307      7076  TIP3      OH2             2.6316496015       27.7017742534       -2.6500146635  SOLV      7065            0.0000000000
     21308      7076  TIP3      H1              2.6960596015       26.9077342534       -2.1193746635  SOLV      7065            0.0000000000
     21309      7076  TIP3      H2              3.2845696015       27.5830542534       -3.3398146635  SOLV      7065            0.0000000000
     21310      7077  TIP3      OH2             4.9458896015       27.3280142534       14.6501653365  SOLV      7066            0.0000000000
     21311      7077  TIP3      H1              4.6172696015       27.5988242534       13.7929053365  SOLV      7066            0.0000000000
     21312      7077  TIP3      H2              5.0977096015       26.3869942534       14.5626653365  SOLV      7066            0.0000000000
     21313      7078  TIP3      OH2             7.9839896015       28.7489442534       -2.9142146635  SOLV      7067            0.0000000000
     21314      7078  TIP3      H1              7.7153996015       28.9291542534       -2.0133246635  SOLV      7067            0.0000000000
     21315      7078  TIP3      H2              7.7775496015       27.8235642534       -3.0456346635  SOLV      7067            0.0000000000
     21316      7079  TIP3      OH2            10.6804096015       27.2437442534       12.0333953365  SOLV      7068            0.0000000000
     21317      7079  TIP3      H1             11.4258896015       27.8321142534       11.9137953365  SOLV      7068            0.0000000000
     21318      7079  TIP3      H2              9.9230896015       27.8257142534       12.0967053365  SOLV      7068            0.0000000000
     21319      7080  TIP3      OH2            -0.8770703985       24.5585342534       14.6374553365  SOLV      7069            0.0000000000
     21320      7080  TIP3      H1             -0.4689503985       23.7011942534       14.5165153365  SOLV      7069            0.0000000000
     21321      7080  TIP3      H2             -1.1373103985       24.5726642534       15.5584853365  SOLV      7069            0.0000000000
     21322      7081  TIP3      OH2             3.7810296015       25.6743942534       -0.3442146635  SOLV      7070            0.0000000000
     21323      7081  TIP3      H1              3.3212296015       25.1902242534        0.3416353365  SOLV      7070            0.0000000000
     21324      7081  TIP3      H2              4.0358996015       25.0059342534       -0.9801646635  SOLV      7070            0.0000000000
     21325      7082  TIP3      OH2             3.0699596015       23.5671042534       12.0117453365  SOLV      7071            0.0000000000
     21326      7082  TIP3      H1              2.4515696015       24.2417642534       12.2922153365  SOLV      7071            0.0000000000
     21327      7082  TIP3      H2              3.4140796015       23.8884942534       11.1783653365  SOLV      7071            0.0000000000
     21328      7083  TIP3      OH2             4.8520696015       23.9175742534       -2.0818946635  SOLV      7072            0.0000000000
     21329      7083  TIP3      H1              4.6715696015       23.7626942534       -3.0090646635  SOLV      7072            0.0000000000
     21330      7083  TIP3      H2              5.8021196015       24.0254442534       -2.0371046635  SOLV      7072            0.0000000000
     21331      7084  TIP3      OH2             8.0897796015       26.0386342534       15.2892253365  SOLV      7073            0.0000000000
     21332      7084  TIP3      H1              9.0428996015       26.1225442534       15.2618253365  SOLV      7073            0.0000000000
     21333      7084  TIP3      H2              7.9292396015       25.3268142534       15.9087153365  SOLV      7073            0.0000000000
     21334      7085  TIP3      OH2            14.2418996015       26.2719942534       -2.6360846635  SOLV      7074            0.0000000000
     21335      7085  TIP3      H1             13.9683796015       25.8475442534       -3.4492546635  SOLV      7074            0.0000000000
     21336      7085  TIP3      H2             14.2813096015       27.2034442534       -2.8530446635  SOLV      7074            0.0000000000
     21337      7086  TIP3      OH2             3.4093296015       20.9221842534       13.0940553365  SOLV      7075            0.0000000000
     21338      7086  TIP3      H1              3.5594196015       20.1933142534       12.4920253365  SOLV      7075            0.0000000000
     21339      7086  TIP3      H2              3.4115696015       21.6993542534       12.5352753365  SOLV      7075            0.0000000000
     21340      7087  TIP3      OH2             3.8218996015       19.2917642534       10.5867953365  SOLV      7076            0.0000000000
     21341      7087  TIP3      H1              4.3576496015       19.7434342534        9.9347253365  SOLV      7076            0.0000000000
     21342      7087  TIP3      H2              2.9698596015       19.1837442534       10.1642053365  SOLV      7076            0.0000000000
     21343      7088  TIP3      OH2             5.4037396015       24.7313842534       10.8263153365  SOLV      7077            0.0000000000
     21344      7088  TIP3      H1              6.1542196015       24.5751342534       10.2530953365  SOLV      7077            0.0000000000
     21345      7088  TIP3      H2              5.0645696015       25.5830442534       10.5508653365  SOLV      7077            0.0000000000
     21346      7089  TIP3      OH2             9.8193596015       22.5465642534       15.8548453365  SOLV      7078            0.0000000000
     21347      7089  TIP3      H1             10.0114896015       21.6155042534       15.7432953365  SOLV      7078            0.0000000000
     21348      7089  TIP3      H2             10.6769896015       22.9715142534       15.8443853365  SOLV      7078            0.0000000000
     21349      7090  TIP3      OH2            11.1360796015       25.3350842534       13.9321153365  SOLV      7079            0.0000000000
     21350      7090  TIP3      H1             10.8545796015       26.0445442534       13.3544953365  SOLV      7079            0.0000000000
     21351      7090  TIP3      H2             12.0785096015       25.2623842534       13.7812353365  SOLV      7079            0.0000000000
     21352      7091  TIP3      OH2             1.8879596015       22.1205342534       15.0056153365  SOLV      7080            0.0000000000
     21353      7091  TIP3      H1              1.1208596015       21.5880142534       14.7953753365  SOLV      7080            0.0000000000
     21354      7091  TIP3      H2              2.5668596015       21.8105742534       14.4062453365  SOLV      7080            0.0000000000
     21355      7092  TIP3      OH2             4.6274496015       16.7483342534       11.0181553365  SOLV      7081            0.0000000000
     21356      7092  TIP3      H1              4.5294096015       17.6946542534       10.9127753365  SOLV      7081            0.0000000000
     21357      7092  TIP3      H2              3.8850696015       16.3757142534       10.5425053365  SOLV      7081            0.0000000000
     21358      7093  TIP3      OH2             5.8914996015       21.0698742534       14.5819953365  SOLV      7082            0.0000000000
     21359      7093  TIP3      H1              5.6560396015       20.8505442534       15.4834853365  SOLV      7082            0.0000000000
     21360      7093  TIP3      H2              5.1081896015       20.8629942534       14.0722453365  SOLV      7082            0.0000000000
     21361      7094  TIP3      OH2             8.6071596015       20.1972242534       13.6573453365  SOLV      7083            0.0000000000
     21362      7094  TIP3      H1              7.6596996015       20.2291942534       13.7896753365  SOLV      7083            0.0000000000
     21363      7094  TIP3      H2              8.9198296015       19.5719342534       14.3111653365  SOLV      7083            0.0000000000
     21364      7095  TIP3      OH2            10.2413096015       18.8313342534       15.6625353365  SOLV      7084            0.0000000000
     21365      7095  TIP3      H1             10.1444896015       17.8790642534       15.6567253365  SOLV      7084            0.0000000000
     21366      7095  TIP3      H2              9.9196196015       19.1000142534       16.5230853365  SOLV      7084            0.0000000000
     21367      7096  TIP3      OH2             0.0682396015       20.0409142534       14.7100853365  SOLV      7085            0.0000000000
     21368      7096  TIP3      H1              0.2799796015       19.3345242534       14.0998353365  SOLV      7085            0.0000000000
     21369      7096  TIP3      H2             -0.0430103985       19.6035142534       15.5542053365  SOLV      7085            0.0000000000
     21370      7097  TIP3      OH2             4.8492596015       16.0420742534       13.6894353365  SOLV      7086            0.0000000000
     21371      7097  TIP3      H1              5.5610996015       15.4022942534       13.6753453365  SOLV      7086            0.0000000000
     21372      7097  TIP3      H2              4.7482996015       16.3089042534       12.7757453365  SOLV      7086            0.0000000000
     21373      7098  TIP3      OH2             5.2030096015       17.7249142534       15.7430653365  SOLV      7087            0.0000000000
     21374      7098  TIP3      H1              5.0712296015       17.2492942534       14.9229153365  SOLV      7087            0.0000000000
     21375      7098  TIP3      H2              4.6037496015       18.4692742534       15.6877753365  SOLV      7087            0.0000000000
     21376      7099  TIP3      OH2             4.7492396015       34.6079442534       -1.0805346635  SOLV      7088            0.0000000000
     21377      7099  TIP3      H1              5.6823096015       34.7658142534       -0.9366946635  SOLV      7088            0.0000000000
     21378      7099  TIP3      H2              4.4851196015       35.2832442534       -1.7053846635  SOLV      7088            0.0000000000
     21379      7100  TIP3      OH2            -1.6822703985       29.2443242534       -1.5977246635  SOLV      7089            0.0000000000
     21380      7100  TIP3      H1             -0.7683503985       29.3232142534       -1.3243346635  SOLV      7089            0.0000000000
     21381      7100  TIP3      H2             -1.6749603985       28.5572842534       -2.2641646635  SOLV      7089            0.0000000000
     21382      7101  TIP3      OH2            -3.0332103985       34.6371742534        3.4796653365  SOLV      7090            0.0000000000
     21383      7101  TIP3      H1             -3.6805003985       34.1753442534        2.9467853365  SOLV      7090            0.0000000000
     21384      7101  TIP3      H2             -2.6787503985       33.9655042534        4.0622853365  SOLV      7090            0.0000000000
     21385      7102  TIP3      OH2            -2.1632903985       32.7178742534        5.2842853365  SOLV      7091            0.0000000000
     21386      7102  TIP3      H1             -2.4976103985       31.8376042534        5.4563053365  SOLV      7091            0.0000000000
     21387      7102  TIP3      H2             -1.9410503985       33.0633742534        6.1488453365  SOLV      7091            0.0000000000
     21388      7103  TIP3      OH2            15.3851896015       33.5275142534        8.2647653365  SOLV      7092            0.0000000000
     21389      7103  TIP3      H1             15.3638596015       33.7123542534        9.2037053365  SOLV      7092            0.0000000000
     21390      7103  TIP3      H2             16.0758096015       34.0959142534        7.9239053365  SOLV      7092            0.0000000000
     21391      7104  TIP3      OH2            14.9484796015       33.0946242534       11.1866753365  SOLV      7093            0.0000000000
     21392      7104  TIP3      H1             14.4613496015       32.3590342534       10.8154153365  SOLV      7093            0.0000000000
     21393      7104  TIP3      H2             15.4977496015       32.7010142534       11.8646153365  SOLV      7093            0.0000000000
     21394      7105  TIP3      OH2            13.3992096015       28.8844342534       15.8247053365  SOLV      7094            0.0000000000
     21395      7105  TIP3      H1             12.5333196015       28.7794042534       16.2189353365  SOLV      7094            0.0000000000
     21396      7105  TIP3      H2             13.7757996015       29.6427642534       16.2711753365  SOLV      7094            0.0000000000
     21397      7106  TIP3      OH2            14.7001796015       27.1408042534        1.3389553365  SOLV      7095            0.0000000000
     21398      7106  TIP3      H1             15.5503196015       27.5618942534        1.4661153365  SOLV      7095            0.0000000000
     21399      7106  TIP3      H2             14.7056896015       26.4008142534        1.9460953365  SOLV      7095            0.0000000000
     21400      7107  TIP3      OH2            15.0947396015       25.1945442534        3.1625253365  SOLV      7096            0.0000000000
     21401      7107  TIP3      H1             14.3681996015       24.7148042534        3.5602853365  SOLV      7096            0.0000000000
     21402      7107  TIP3      H2             15.6760696015       25.4000142534        3.8946853365  SOLV      7096            0.0000000000
     21403      7108  TIP3      OH2            14.8538596015       27.9792942534        8.1102853365  SOLV      7097            0.0000000000
     21404      7108  TIP3      H1             15.6872796015       27.6012942534        7.8296453365  SOLV      7097            0.0000000000
     21405      7108  TIP3      H2             14.9658896015       28.9224142534        7.9911953365  SOLV      7097            0.0000000000
     21406      7109  TIP3      OH2            13.3400896015       30.8570442534       10.4171253365  SOLV      7098            0.0000000000
     21407      7109  TIP3      H1             12.6926196015       31.1821942534       11.0426453365  SOLV      7098            0.0000000000
     21408      7109  TIP3      H2             12.8224896015       30.4168142534        9.7429553365  SOLV      7098            0.0000000000
     21409      7110  TIP3      OH2            15.3630496015       25.0953942534       -0.4463446635  SOLV      7099            0.0000000000
     21410      7110  TIP3      H1             14.8411596015       25.4518042534       -1.1652546635  SOLV      7099            0.0000000000
     21411      7110  TIP3      H2             15.3299696015       25.7701742534        0.2317453365  SOLV      7099            0.0000000000
     21412      7111  TIP3      OH2            13.7119496015       22.3349542534       -1.8956346635  SOLV      7100            0.0000000000
     21413      7111  TIP3      H1             13.8083896015       23.0016542534       -2.5756646635  SOLV      7100            0.0000000000
     21414      7111  TIP3      H2             13.5719096015       21.5195842534       -2.3770846635  SOLV      7100            0.0000000000
     21415      7112  TIP3      OH2            12.8814196015       23.7151942534        3.7253953365  SOLV      7101            0.0000000000
     21416      7112  TIP3      H1             12.7312996015       22.7700542534        3.7051753365  SOLV      7101            0.0000000000
     21417      7112  TIP3      H2             12.5278696015       23.9963342534        4.5693053365  SOLV      7101            0.0000000000
     21418      7113  TIP3      OH2            -2.0833403985       25.7934142534        7.7357753365  SOLV      7102            0.0000000000
     21419      7113  TIP3      H1             -1.8990503985       25.7115842534        6.8000653365  SOLV      7102            0.0000000000
     21420      7113  TIP3      H2             -1.2340503985       25.6691142534        8.1594153365  SOLV      7102            0.0000000000
     21421      7114  TIP3      OH2            13.7377096015       25.6855242534       13.3642253365  SOLV      7103            0.0000000000
     21422      7114  TIP3      H1             14.3204396015       24.9507542534       13.5559453365  SOLV      7103            0.0000000000
     21423      7114  TIP3      H2             14.3016396015       26.4575542534       13.4108053365  SOLV      7103            0.0000000000
     21424      7115  TIP3      OH2            15.2344196015       23.5881042534       14.0487653365  SOLV      7104            0.0000000000
     21425      7115  TIP3      H1             14.3710896015       23.2093142534       13.8832353365  SOLV      7104            0.0000000000
     21426      7115  TIP3      H2             15.8387896015       22.8495842534       13.9743453365  SOLV      7104            0.0000000000
     21427      7116  TIP3      OH2            12.9593296015       19.7429342534       -2.7780846635  SOLV      7105            0.0000000000
     21428      7116  TIP3      H1             13.5699096015       19.3716142534       -2.1412646635  SOLV      7105            0.0000000000
     21429      7116  TIP3      H2             12.1224796015       19.3216242534       -2.5820846635  SOLV      7105            0.0000000000
     21430      7117  TIP3      OH2            12.5918996015       21.2977742534        2.1879053365  SOLV      7106            0.0000000000
     21431      7117  TIP3      H1             12.8716096015       20.3908142534        2.3120753365  SOLV      7106            0.0000000000
     21432      7117  TIP3      H2             13.3510696015       21.7319242534        1.7988253365  SOLV      7106            0.0000000000
     21433      7118  TIP3      OH2            13.2037296015       21.8795142534        7.6237953365  SOLV      7107            0.0000000000
     21434      7118  TIP3      H1             14.1365296015       22.0915042534        7.5893953365  SOLV      7107            0.0000000000
     21435      7118  TIP3      H2             12.9684796015       21.9807242534        8.5460953365  SOLV      7107            0.0000000000
     21436      7119  TIP3      OH2            13.2329196015       22.6160442534       10.3997353365  SOLV      7108            0.0000000000
     21437      7119  TIP3      H1             12.3900496015       22.8840842534       10.7657153365  SOLV      7108            0.0000000000
     21438      7119  TIP3      H2             13.6753496015       23.4382342534       10.1888453365  SOLV      7108            0.0000000000
     21439      7120  TIP3      OH2            -2.4858603985       21.0639142534       13.8766553365  SOLV      7109            0.0000000000
     21440      7120  TIP3      H1             -1.5663703985       20.9417442534       14.1129653365  SOLV      7109            0.0000000000
     21441      7120  TIP3      H2             -2.9354103985       20.3138842534       14.2660053365  SOLV      7109            0.0000000000
     21442      7121  TIP3      OH2            15.5160796015       16.5960642534       15.7532353365  SOLV      7110            0.0000000000
     21443      7121  TIP3      H1             15.8657796015       15.9424142534       15.1477053365  SOLV      7110            0.0000000000
     21444      7121  TIP3      H2             15.6630296015       17.4334742534       15.3134953365  SOLV      7110            0.0000000000
     21445      7122  TIP3      OH2            13.2053796015       18.5607042534        2.2361053365  SOLV      7111            0.0000000000
     21446      7122  TIP3      H1             13.3878796015       18.1118542534        3.0616053365  SOLV      7111            0.0000000000
     21447      7122  TIP3      H2             12.6056696015       17.9761442534        1.7725653365  SOLV      7111            0.0000000000
     21448      7123  TIP3      OH2            -1.2646103985       19.3760742534        6.7679453365  SOLV      7112            0.0000000000
     21449      7123  TIP3      H1             -0.8194503985       18.5843242534        7.0699153365  SOLV      7112            0.0000000000
     21450      7123  TIP3      H2             -0.7983103985       20.0925942534        7.1985053365  SOLV      7112            0.0000000000
     21451      7124  TIP3      OH2            -2.9605803985       22.3753742534        7.8369653365  SOLV      7113            0.0000000000
     21452      7124  TIP3      H1             -2.4686003985       22.1544242534        7.0461653365  SOLV      7113            0.0000000000
     21453      7124  TIP3      H2             -2.5984903985       23.2157142534        8.1179153365  SOLV      7113            0.0000000000
     21454      7125  TIP3      OH2            15.0357996015       18.7055242534       14.1023653365  SOLV      7114            0.0000000000
     21455      7125  TIP3      H1             14.1183696015       18.9762342534       14.0667153365  SOLV      7114            0.0000000000
     21456      7125  TIP3      H2             15.1587396015       18.1703642534       13.3183353365  SOLV      7114            0.0000000000
     21457      7126  TIP3      OH2            15.0719996015       18.6285142534       -1.2358646635  SOLV      7115            0.0000000000
     21458      7126  TIP3      H1             15.4842596015       17.9070842534       -1.7110646635  SOLV      7115            0.0000000000
     21459      7126  TIP3      H2             15.7536496015       19.2979742534       -1.1774346635  SOLV      7115            0.0000000000
     21460      7127  TIP3      OH2            -2.6469303985       18.6332842534        1.8912053365  SOLV      7116            0.0000000000
     21461      7127  TIP3      H1             -3.5720903985       18.8419442534        1.7617553365  SOLV      7116            0.0000000000
     21462      7127  TIP3      H2             -2.1929403985       19.1173642534        1.2014353365  SOLV      7116            0.0000000000
     21463      7128  TIP3      OH2            12.1237896015       33.6174542534        3.8369453365  SOLV      7117            0.0000000000
     21464      7128  TIP3      H1             12.7760796015       33.2696642534        3.2288553365  SOLV      7117            0.0000000000
     21465      7128  TIP3      H2             12.6341696015       34.1057742534        4.4829153365  SOLV      7117            0.0000000000
     21466      7129  TIP3      OH2            -2.6833903985       17.3711842534       10.2354553365  SOLV      7118            0.0000000000
     21467      7129  TIP3      H1             -3.3483403985       17.1252142534       10.8785453365  SOLV      7118            0.0000000000
     21468      7129  TIP3      H2             -3.1262603985       17.9932242534        9.6582553365  SOLV      7118            0.0000000000
     21469      7130  TIP3      OH2            -0.4914603985       30.5465942534       14.3800353365  SOLV      7119            0.0000000000
     21470      7130  TIP3      H1             -1.3122103985       30.7212442534       13.9195053365  SOLV      7119            0.0000000000
     21471      7130  TIP3      H2             -0.7436803985       30.4730642534       15.3004753365  SOLV      7119            0.0000000000
     21472      7131  TIP3      OH2             2.4628296015       31.5207142534       10.6384353365  SOLV      7120            0.0000000000
     21473      7131  TIP3      H1              2.0379396015       32.3305642534       10.3558953365  SOLV      7120            0.0000000000
     21474      7131  TIP3      H2              3.3671096015       31.6061242534       10.3364153365  SOLV      7120            0.0000000000
     21475      7132  TIP3      OH2             6.7739696015       32.9197142534       13.5978053365  SOLV      7121            0.0000000000
     21476      7132  TIP3      H1              6.9587196015       32.5863242534       14.4758353365  SOLV      7121            0.0000000000
     21477      7132  TIP3      H2              7.6204196015       33.2295742534       13.2757253365  SOLV      7121            0.0000000000
     21478      7133  TIP3      OH2             9.1190096015       34.2056042534       12.8419453365  SOLV      7122            0.0000000000
     21479      7133  TIP3      H1              9.7958996015       33.5728342534       12.6018653365  SOLV      7122            0.0000000000
     21480      7133  TIP3      H2              9.4408896015       34.6066542534       13.6492753365  SOLV      7122            0.0000000000
     21481      7134  TIP3      OH2            14.0363896015       16.7951542534       11.9214453365  SOLV      7123            0.0000000000
     21482      7134  TIP3      H1             13.2237396015       17.1201842534       11.5339153365  SOLV      7123            0.0000000000
     21483      7134  TIP3      H2             14.2692396015       16.0350042534       11.3883553365  SOLV      7123            0.0000000000
     21484      7135  TIP3      OH2            -0.1355003985       34.7771042534       10.6859653365  SOLV      7124            0.0000000000
     21485      7135  TIP3      H1             -0.8558603985       35.2172042534       10.2347353365  SOLV      7124            0.0000000000
     21486      7135  TIP3      H2             -0.5011003985       34.5265742534       11.5343653365  SOLV      7124            0.0000000000
     21487      7136  TIP3      OH2             2.3317596015       34.3774942534        9.7156853365  SOLV      7125            0.0000000000
     21488      7136  TIP3      H1              1.4669796015       34.4493442534       10.1196953365  SOLV      7125            0.0000000000
     21489      7136  TIP3      H2              2.2766596015       34.9242242534        8.9319353365  SOLV      7125            0.0000000000
     21490      7137  TIP3      OH2             7.0423196015       34.2653842534        8.8912853365  SOLV      7126            0.0000000000
     21491      7137  TIP3      H1              6.5857196015       34.7943542534        8.2371253365  SOLV      7126            0.0000000000
     21492      7137  TIP3      H2              7.2051196015       34.8685242534        9.6165153365  SOLV      7126            0.0000000000
     21493      7138  TIP3      OH2             9.3699496015       33.1433442534        9.8363153365  SOLV      7127            0.0000000000
     21494      7138  TIP3      H1              8.4653196015       33.3083642534        9.5705253365  SOLV      7127            0.0000000000
     21495      7138  TIP3      H2              9.7988096015       33.9965642534        9.7706553365  SOLV      7127            0.0000000000
     21496      7139  TIP3      OH2            11.9741396015       34.7132542534       10.1310953365  SOLV      7128            0.0000000000
     21497      7139  TIP3      H1             11.7923396015       35.6291442534        9.9205853365  SOLV      7128            0.0000000000
     21498      7139  TIP3      H2             12.1509196015       34.3029642534        9.2845553365  SOLV      7128            0.0000000000
     21499      7140  TIP3      OH2            -0.7206903985       33.4003542534        7.5961453365  SOLV      7129            0.0000000000
     21500      7140  TIP3      H1             -0.7390903985       32.9748642534        8.4533753365  SOLV      7129            0.0000000000
     21501      7140  TIP3      H2              0.0840996015       33.0818542534        7.1873653365  SOLV      7129            0.0000000000
     21502      7141  TIP3      OH2             1.4206196015       32.1102242534        6.2511353365  SOLV      7130            0.0000000000
     21503      7141  TIP3      H1              1.2016896015       31.1939642534        6.4207353365  SOLV      7130            0.0000000000
     21504      7141  TIP3      H2              2.2448396015       32.2502642534        6.7172753365  SOLV      7130            0.0000000000
     21505      7142  TIP3      OH2             3.9578696015       32.5801542534        7.0999353365  SOLV      7131            0.0000000000
     21506      7142  TIP3      H1              4.1704396015       31.6920542534        6.8130253365  SOLV      7131            0.0000000000
     21507      7142  TIP3      H2              4.0223796015       32.5459242534        8.0543353365  SOLV      7131            0.0000000000
     21508      7143  TIP3      OH2             7.4662396015       18.2442142534        6.2442653365  SOLV      7132            0.0000000000
     21509      7143  TIP3      H1              6.7919196015       17.6147742534        6.4998453365  SOLV      7132            0.0000000000
     21510      7143  TIP3      H2              8.0301596015       17.7601042534        5.6410553365  SOLV      7132            0.0000000000
     21511      7144  TIP3      OH2            12.6089596015       16.3516142534        6.3569753365  SOLV      7133            0.0000000000
     21512      7144  TIP3      H1             13.2127196015       16.8991542534        5.8550753365  SOLV      7133            0.0000000000
     21513      7144  TIP3      H2             11.7391596015       16.6706542534        6.1163853365  SOLV      7133            0.0000000000
     21514      7145  TIP3      OH2            14.3359996015       17.4904842534        4.6900653365  SOLV      7134            0.0000000000
     21515      7145  TIP3      H1             14.9477496015       16.9760542534        4.1634253365  SOLV      7134            0.0000000000
     21516      7145  TIP3      H2             14.7183396015       18.3676942534        4.7135053365  SOLV      7134            0.0000000000
     21517      7146  TIP3      OH2            -0.2070103985       16.8782442534        4.0662553365  SOLV      7135            0.0000000000
     21518      7146  TIP3      H1             -0.9840303985       16.6437342534        3.5588453365  SOLV      7135            0.0000000000
     21519      7146  TIP3      H2              0.3233496015       16.0814542534        4.0750553365  SOLV      7135            0.0000000000
     21520      7147  TIP3      OH2            -1.3706703985       16.6760542534       -0.1301346635  SOLV      7136            0.0000000000
     21521      7147  TIP3      H1             -0.9316003985       17.2871042534       -0.7217846635  SOLV      7136            0.0000000000
     21522      7147  TIP3      H2             -2.0044303985       17.2144642534        0.3438653365  SOLV      7136            0.0000000000
     21523      7148  TIP3      OH2             4.3722496015       16.8049542534        3.8795653365  SOLV      7137            0.0000000000
     21524      7148  TIP3      H1              5.2465896015       17.1933842534        3.8499953365  SOLV      7137            0.0000000000
     21525      7148  TIP3      H2              4.2363296015       16.5897342534        4.8022853365  SOLV      7137            0.0000000000
     21526      7149  TIP3      OH2             9.9290896015       16.8349342534        5.5287353365  SOLV      7138            0.0000000000
     21527      7149  TIP3      H1             10.0052496015       16.9300942534        4.5793353365  SOLV      7138            0.0000000000
     21528      7149  TIP3      H2              9.6540096015       15.9272242534        5.6576453365  SOLV      7138            0.0000000000
     21529      7150  TIP3      OH2            11.2823496015       16.8607142534        1.2212353365  SOLV      7139            0.0000000000
     21530      7150  TIP3      H1             10.5794596015       17.4756342534        1.0113753365  SOLV      7139            0.0000000000
     21531      7150  TIP3      H2             10.8374896015       16.0233842534        1.3523253365  SOLV      7139            0.0000000000
     21532      7151  TIP3      OH2            -1.4697203985       32.6242742534        0.7673753365  SOLV      7140            0.0000000000
     21533      7151  TIP3      H1             -2.1547303985       32.5861642534        0.0998853365  SOLV      7140            0.0000000000
     21534      7151  TIP3      H2             -1.4660003985       33.5370342534        1.0555853365  SOLV      7140            0.0000000000
     21535      7152  TIP3      OH2             0.4902396015       18.5922042534       -1.6877246635  SOLV      7141            0.0000000000
     21536      7152  TIP3      H1              0.9815796015       17.9624442534       -2.2151746635  SOLV      7141            0.0000000000
     21537      7152  TIP3      H2              1.1138696015       18.8881442534       -1.0246046635  SOLV      7141            0.0000000000
     21538      7153  TIP3      OH2             5.5162496015       18.8853542534        0.7693253365  SOLV      7142            0.0000000000
     21539      7153  TIP3      H1              5.6943796015       18.2386742534        1.4521853365  SOLV      7142            0.0000000000
     21540      7153  TIP3      H2              5.4628696015       19.7191242534        1.2364353365  SOLV      7142            0.0000000000
     21541      7154  TIP3      OH2             7.3946296015       33.8337642534       -0.8350046635  SOLV      7143            0.0000000000
     21542      7154  TIP3      H1              8.2606496015       34.2005042534       -1.0131846635  SOLV      7143            0.0000000000
     21543      7154  TIP3      H2              7.1479096015       33.3945642534       -1.6489246635  SOLV      7143            0.0000000000
     21544      7155  TIP3      OH2            14.1035896015       33.3967942534        1.8441053365  SOLV      7144            0.0000000000
     21545      7155  TIP3      H1             13.9092996015       32.6490042534        1.2790653365  SOLV      7144            0.0000000000
     21546      7155  TIP3      H2             14.0645996015       34.1548042534        1.2608953365  SOLV      7144            0.0000000000
     21547      7156  TIP3      OH2            -0.2492103985       17.3924342534       13.5838753365  SOLV      7145            0.0000000000
     21548      7156  TIP3      H1             -0.6153903985       16.6266942534       14.0263453365  SOLV      7145            0.0000000000
     21549      7156  TIP3      H2              0.6636396015       17.4214542534       13.8703853365  SOLV      7145            0.0000000000
     21550      7157  TIP3      OH2             1.7238696015       16.7428742534       15.1195853365  SOLV      7146            0.0000000000
     21551      7157  TIP3      H1              2.6222296015       16.4688942534       14.9349253365  SOLV      7146            0.0000000000
     21552      7157  TIP3      H2              1.3371796015       16.0004742534       15.5838453365  SOLV      7146            0.0000000000
     21553      7158  TIP3      OH2             0.3483996015       33.5443542534       -2.2074146635  SOLV      7147            0.0000000000
     21554      7158  TIP3      H1              0.0808596015       33.8306442534       -1.3341046635  SOLV      7147            0.0000000000
     21555      7158  TIP3      H2              1.1196596015       32.9982742534       -2.0551646635  SOLV      7147            0.0000000000
     21556      7159  TIP3      OH2            10.1450996015       16.0754042534       15.3018653365  SOLV      7148            0.0000000000
     21557      7159  TIP3      H1             10.2218196015       15.6494742534       16.1556353365  SOLV      7148            0.0000000000
     21558      7159  TIP3      H2             11.0387596015       16.0888742534       14.9592153365  SOLV      7148            0.0000000000
     21559      7160  TIP3      OH2            13.3212096015       32.1480342534       13.9942853365  SOLV      7149            0.0000000000
     21560      7160  TIP3      H1             12.5393996015       31.9618342534       13.4743453365  SOLV      7149            0.0000000000
     21561      7160  TIP3      H2             13.2491996015       33.0774642534       14.2115353365  SOLV      7149            0.0000000000
     21562      7161  TIP3      OH2            27.7272496015       26.0344742534        4.0250053365  SOLV      7150            0.0000000000
     21563      7161  TIP3      H1             27.8163596015       26.9782942534        3.8927153365  SOLV      7150            0.0000000000
     21564      7161  TIP3      H2             27.0890096015       25.7591142534        3.3669453365  SOLV      7150            0.0000000000
     21565      7162  TIP3      OH2            26.6603796015       25.2895442534        7.4438253365  SOLV      7151            0.0000000000
     21566      7162  TIP3      H1             26.6221296015       24.6431742534        8.1487853365  SOLV      7151            0.0000000000
     21567      7162  TIP3      H2             26.3380296015       24.8229842534        6.6726953365  SOLV      7151            0.0000000000
     21568      7163  TIP3      OH2            19.0288796015       24.9037542534        9.0368153365  SOLV      7152            0.0000000000
     21569      7163  TIP3      H1             19.0700896015       24.2780842534        9.7600553365  SOLV      7152            0.0000000000
     21570      7163  TIP3      H2             19.7316496015       25.5276142534        9.2188553365  SOLV      7152            0.0000000000
     21571      7164  TIP3      OH2            30.3663996015       28.2285842534        5.7453353365  SOLV      7153            0.0000000000
     21572      7164  TIP3      H1             29.9256696015       27.5081842534        6.1958953365  SOLV      7153            0.0000000000
     21573      7164  TIP3      H2             30.3533696015       28.9493042534        6.3751053365  SOLV      7153            0.0000000000
     21574      7165  TIP3      OH2            19.9521896015       29.3536442534        7.5717253365  SOLV      7154            0.0000000000
     21575      7165  TIP3      H1             19.5827096015       28.5516942534        7.2021553365  SOLV      7154            0.0000000000
     21576      7165  TIP3      H2             20.8932996015       29.1851342534        7.6180653365  SOLV      7154            0.0000000000
     21577      7166  TIP3      OH2            16.5622396015       23.0139042534        2.9646053365  SOLV      7155            0.0000000000
     21578      7166  TIP3      H1             16.1145796015       23.8597742534        2.9462553365  SOLV      7155            0.0000000000
     21579      7166  TIP3      H2             16.0013596015       22.4343242534        2.4491153365  SOLV      7155            0.0000000000
     21580      7167  TIP3      OH2            17.2728496015       25.1758642534        5.0904053365  SOLV      7156            0.0000000000
     21581      7167  TIP3      H1             17.4861996015       24.4060242534        5.6177053365  SOLV      7156            0.0000000000
     21582      7167  TIP3      H2             18.0106096015       25.2655342534        4.4871653365  SOLV      7156            0.0000000000
     21583      7168  TIP3      OH2            27.4779496015       33.3327542534        5.9573753365  SOLV      7157            0.0000000000
     21584      7168  TIP3      H1             28.0975896015       32.6562242534        5.6842953365  SOLV      7157            0.0000000000
     21585      7168  TIP3      H2             27.2696896015       33.1148342534        6.8658653365  SOLV      7157            0.0000000000
     21586      7169  TIP3      OH2            25.0498196015       27.7216842534        7.8499253365  SOLV      7158            0.0000000000
     21587      7169  TIP3      H1             25.3536096015       27.0358242534        7.2553353365  SOLV      7158            0.0000000000
     21588      7169  TIP3      H2             25.7712196015       27.8405542534        8.4677253365  SOLV      7158            0.0000000000
     21589      7170  TIP3      OH2            33.7127996015       19.3232142534        8.7105453365  SOLV      7159            0.0000000000
     21590      7170  TIP3      H1             33.7620196015       19.9333342534        9.4464553365  SOLV      7159            0.0000000000
     21591      7170  TIP3      H2             34.1383096015       19.7843042534        7.9876553365  SOLV      7159            0.0000000000
     21592      7171  TIP3      OH2            28.1905196015       22.1159242534        8.1774053365  SOLV      7160            0.0000000000
     21593      7171  TIP3      H1             28.3331096015       21.1696242534        8.1975653365  SOLV      7160            0.0000000000
     21594      7171  TIP3      H2             28.0844196015       22.3229042534        7.2488953365  SOLV      7160            0.0000000000
     21595      7172  TIP3      OH2            21.3453496015       20.2175642534        5.4498853365  SOLV      7161            0.0000000000
     21596      7172  TIP3      H1             21.3884596015       21.0774142534        5.0315153365  SOLV      7161            0.0000000000
     21597      7172  TIP3      H2             20.8877596015       19.6650342534        4.8162053365  SOLV      7161            0.0000000000
     21598      7173  TIP3      OH2            29.0676196015       20.3481242534        3.8507153365  SOLV      7162            0.0000000000
     21599      7173  TIP3      H1             29.7140496015       20.0194442534        4.4754753365  SOLV      7162            0.0000000000
     21600      7173  TIP3      H2             29.5775596015       20.8660242534        3.2278553365  SOLV      7162            0.0000000000
     21601      7174  TIP3      OH2            17.9654996015       22.6141442534        6.2120253365  SOLV      7163            0.0000000000
     21602      7174  TIP3      H1             18.6191596015       22.0643142534        6.6440353365  SOLV      7163            0.0000000000
     21603      7174  TIP3      H2             17.9894296015       22.3400442534        5.2952253365  SOLV      7163            0.0000000000
     21604      7175  TIP3      OH2            23.1219496015       24.1642742534        5.4271753365  SOLV      7164            0.0000000000
     21605      7175  TIP3      H1             23.7380496015       23.6378142534        5.9365753365  SOLV      7164            0.0000000000
     21606      7175  TIP3      H2             22.5358296015       23.5241442534        5.0235353365  SOLV      7164            0.0000000000
     21607      7176  TIP3      OH2            34.1042596015       20.8011342534       10.9465253365  SOLV      7165            0.0000000000
     21608      7176  TIP3      H1             33.4157196015       21.4592042534       10.8511853365  SOLV      7165            0.0000000000
     21609      7176  TIP3      H2             34.1197196015       20.6039242534       11.8830653365  SOLV      7165            0.0000000000
     21610      7177  TIP3      OH2            20.1555396015       19.1354042534        9.5239653365  SOLV      7166            0.0000000000
     21611      7177  TIP3      H1             19.9367096015       19.6654642534        8.7575653365  SOLV      7166            0.0000000000
     21612      7177  TIP3      H2             19.4876296015       19.3619542534       10.1711053365  SOLV      7166            0.0000000000
     21613      7178  TIP3      OH2            27.5245196015       28.6355142534        3.0678753365  SOLV      7167            0.0000000000
     21614      7178  TIP3      H1             27.2290296015       28.3127442534        2.2165653365  SOLV      7167            0.0000000000
     21615      7178  TIP3      H2             27.2002996015       29.5351842534        3.1091353365  SOLV      7167            0.0000000000
     21616      7179  TIP3      OH2            22.7246796015       26.8109742534        9.8113353365  SOLV      7168            0.0000000000
     21617      7179  TIP3      H1             21.9845896015       27.4091242534        9.9148553365  SOLV      7168            0.0000000000
     21618      7179  TIP3      H2             23.4386296015       27.3649342534        9.4956953365  SOLV      7168            0.0000000000
     21619      7180  TIP3      OH2            30.8314596015       19.6390542534        5.8313053365  SOLV      7169            0.0000000000
     21620      7180  TIP3      H1             30.6162596015       18.8733942534        6.3639053365  SOLV      7169            0.0000000000
     21621      7180  TIP3      H2             31.4871996015       20.1115142534        6.3441553365  SOLV      7169            0.0000000000
     21622      7181  TIP3      OH2            19.7492696015       21.0275842534        7.4761853365  SOLV      7170            0.0000000000
     21623      7181  TIP3      H1             20.3628996015       21.6603442534        7.8494253365  SOLV      7170            0.0000000000
     21624      7181  TIP3      H2             20.2613396015       20.5550842534        6.8198753365  SOLV      7170            0.0000000000
     21625      7182  TIP3      OH2            21.1321096015       28.7752742534       10.5984853365  SOLV      7171            0.0000000000
     21626      7182  TIP3      H1             21.1268696015       29.6546242534       10.2204153365  SOLV      7171            0.0000000000
     21627      7182  TIP3      H2             20.2785196015       28.6916842534       11.0234753365  SOLV      7171            0.0000000000
     21628      7183  TIP3      OH2            30.8781696015       30.0676542534        8.0932653365  SOLV      7172            0.0000000000
     21629      7183  TIP3      H1             29.9365396015       30.1260442534        8.2549553365  SOLV      7172            0.0000000000
     21630      7183  TIP3      H2             31.1547796015       30.9737042534        7.9562353365  SOLV      7172            0.0000000000
     21631      7184  TIP3      OH2            31.1788696015       18.3541842534        9.5106553365  SOLV      7173            0.0000000000
     21632      7184  TIP3      H1             30.4427896015       18.9648942534        9.4727853365  SOLV      7173            0.0000000000
     21633      7184  TIP3      H2             31.8622696015       18.7690842534        8.9842953365  SOLV      7173            0.0000000000
     21634      7185  TIP3      OH2            24.1820096015       16.4409142534        6.9764553365  SOLV      7174            0.0000000000
     21635      7185  TIP3      H1             24.0644296015       15.4925142534        6.9222853365  SOLV      7174            0.0000000000
     21636      7185  TIP3      H2             23.3270196015       16.7735242534        7.2495653365  SOLV      7174            0.0000000000
     21637      7186  TIP3      OH2            29.1302896015       31.8490042534        4.7184253365  SOLV      7175            0.0000000000
     21638      7186  TIP3      H1             29.5555196015       31.1417942534        4.2333853365  SOLV      7175            0.0000000000
     21639      7186  TIP3      H2             29.4472896015       32.6502742534        4.3016453365  SOLV      7175            0.0000000000
     21640      7187  TIP3      OH2            30.2899396015       29.7498542534        3.2270853365  SOLV      7176            0.0000000000
     21641      7187  TIP3      H1             30.0324196015       29.0598642534        2.6156753365  SOLV      7176            0.0000000000
     21642      7187  TIP3      H2             30.3610196015       29.3069742534        4.0726753365  SOLV      7176            0.0000000000
     21643      7188  TIP3      OH2            31.9759596015       28.3165242534       11.7044353365  SOLV      7177            0.0000000000
     21644      7188  TIP3      H1             32.1155896015       27.7247742534       10.9651353365  SOLV      7177            0.0000000000
     21645      7188  TIP3      H2             32.1432396015       29.1891142534       11.3483153365  SOLV      7177            0.0000000000
     21646      7189  TIP3      OH2            26.4484996015       25.2784742534        1.4770353365  SOLV      7178            0.0000000000
     21647      7189  TIP3      H1             25.7370496015       25.8134442534        1.1250853365  SOLV      7178            0.0000000000
     21648      7189  TIP3      H2             27.1394596015       25.3336842534        0.8169253365  SOLV      7178            0.0000000000
     21649      7190  TIP3      OH2            33.8178896015       24.6563242534        9.7704753365  SOLV      7179            0.0000000000
     21650      7190  TIP3      H1             33.1652996015       25.3508842534        9.8595653365  SOLV      7179            0.0000000000
     21651      7190  TIP3      H2             34.2829196015       24.8664142534        8.9606353365  SOLV      7179            0.0000000000
     21652      7191  TIP3      OH2            29.8542696015       25.4878042534        2.4286253365  SOLV      7180            0.0000000000
     21653      7191  TIP3      H1             29.1223696015       25.7161742534        3.0016853365  SOLV      7180            0.0000000000
     21654      7191  TIP3      H2             30.3014896015       24.7740742534        2.8833753365  SOLV      7180            0.0000000000
     21655      7192  TIP3      OH2            29.7516196015       23.6620642534       11.4963253365  SOLV      7181            0.0000000000
     21656      7192  TIP3      H1             29.8315296015       24.4255042534       12.0681753365  SOLV      7181            0.0000000000
     21657      7192  TIP3      H2             29.1503896015       23.9413042534       10.8058353365  SOLV      7181            0.0000000000
     21658      7193  TIP3      OH2            21.4996396015       26.1184242534        4.3111253365  SOLV      7182            0.0000000000
     21659      7193  TIP3      H1             21.1691596015       25.7477642534        3.4928253365  SOLV      7182            0.0000000000
     21660      7193  TIP3      H2             22.0880496015       25.4478242534        4.6579553365  SOLV      7182            0.0000000000
     21661      7194  TIP3      OH2            22.8663896015       29.5464842534        6.9923453365  SOLV      7183            0.0000000000
     21662      7194  TIP3      H1             22.7715196015       28.9677942534        6.2358053365  SOLV      7183            0.0000000000
     21663      7194  TIP3      H2             23.5957496015       29.1750542534        7.4886253365  SOLV      7183            0.0000000000
     21664      7195  TIP3      OH2            21.8661896015       24.8869842534        7.9446253365  SOLV      7184            0.0000000000
     21665      7195  TIP3      H1             22.4314396015       25.0084042534        7.1817453365  SOLV      7184            0.0000000000
     21666      7195  TIP3      H2             22.1850796015       25.5244842534        8.5834753365  SOLV      7184            0.0000000000
     21667      7196  TIP3      OH2            28.1754096015       30.3901742534        8.6786753365  SOLV      7185            0.0000000000
     21668      7196  TIP3      H1             27.9350696015       31.0524842534        9.3265953365  SOLV      7185            0.0000000000
     21669      7196  TIP3      H2             27.9772296015       29.5556942534        9.1036353365  SOLV      7185            0.0000000000
     21670      7197  TIP3      OH2            22.7462596015       29.2862542534       12.6618153365  SOLV      7186            0.0000000000
     21671      7197  TIP3      H1             22.4350096015       30.0685742534       13.1171353365  SOLV      7186            0.0000000000
     21672      7197  TIP3      H2             22.0962796015       29.1331642534       11.9760153365  SOLV      7186            0.0000000000
     21673      7198  TIP3      OH2            28.7252196015       24.6500942534        0.1137453365  SOLV      7187            0.0000000000
     21674      7198  TIP3      H1             29.3047696015       24.8001242534        0.8606353365  SOLV      7187            0.0000000000
     21675      7198  TIP3      H2             29.1392196015       25.1208342534       -0.6096146635  SOLV      7187            0.0000000000
     21676      7199  TIP3      OH2            19.6662496015       25.4843642534       11.8903853365  SOLV      7188            0.0000000000
     21677      7199  TIP3      H1             19.7365696015       26.1350442534       12.5888853365  SOLV      7188            0.0000000000
     21678      7199  TIP3      H2             18.7754696015       25.5871142534       11.5554753365  SOLV      7188            0.0000000000
     21679      7200  TIP3      OH2            26.4517096015       31.3869442534        3.5490553365  SOLV      7189            0.0000000000
     21680      7200  TIP3      H1             26.9254696015       31.6825742534        4.3264753365  SOLV      7189            0.0000000000
     21681      7200  TIP3      H2             25.8886396015       32.1251042534        3.3160153365  SOLV      7189            0.0000000000
     21682      7201  TIP3      OH2            20.9858496015       31.3577542534       13.4251953365  SOLV      7190            0.0000000000
     21683      7201  TIP3      H1             20.9933796015       31.2217242534       12.4777453365  SOLV      7190            0.0000000000
     21684      7201  TIP3      H2             20.0698896015       31.2405642534       13.6771953365  SOLV      7190            0.0000000000
     21685      7202  TIP3      OH2            32.4240596015       16.4001342534       -0.0732846635  SOLV      7191            0.0000000000
     21686      7202  TIP3      H1             31.5241296015       16.5390342534        0.2217753365  SOLV      7191            0.0000000000
     21687      7202  TIP3      H2             32.6758996015       17.2315942534       -0.4751146635  SOLV      7191            0.0000000000
     21688      7203  TIP3      OH2            20.4899096015       25.1878542534        1.9004053365  SOLV      7192            0.0000000000
     21689      7203  TIP3      H1             20.1980396015       25.9560242534        1.4095353365  SOLV      7192            0.0000000000
     21690      7203  TIP3      H2             19.8154296015       24.5284742534        1.7375453365  SOLV      7192            0.0000000000
     21691      7204  TIP3      OH2            16.5829196015       27.5507742534       10.7153853365  SOLV      7193            0.0000000000
     21692      7204  TIP3      H1             16.0817596015       27.5227142534        9.9003553365  SOLV      7193            0.0000000000
     21693      7204  TIP3      H2             16.5882896015       26.6450942534       11.0251153365  SOLV      7193            0.0000000000
     21694      7205  TIP3      OH2            16.3331896015       30.3311542534        7.5994053365  SOLV      7194            0.0000000000
     21695      7205  TIP3      H1             17.2792496015       30.1868542534        7.5803553365  SOLV      7194            0.0000000000
     21696      7205  TIP3      H2             16.2208196015       31.1154342534        8.1365253365  SOLV      7194            0.0000000000
     21697      7206  TIP3      OH2            25.5094396015       30.5710442534       12.1579153365  SOLV      7195            0.0000000000
     21698      7206  TIP3      H1             25.5968996015       31.3975042534       12.6328253365  SOLV      7195            0.0000000000
     21699      7206  TIP3      H2             24.6459496015       30.2414242534       12.4068453365  SOLV      7195            0.0000000000
     21700      7207  TIP3      OH2            25.9240196015       34.3434142534        1.9639753365  SOLV      7196            0.0000000000
     21701      7207  TIP3      H1             25.8486196015       34.2221342534        1.0174953365  SOLV      7196            0.0000000000
     21702      7207  TIP3      H2             25.9568896015       35.2926842534        2.0824353365  SOLV      7196            0.0000000000
     21703      7208  TIP3      OH2            19.5773996015       33.1321142534        3.7448753365  SOLV      7197            0.0000000000
     21704      7208  TIP3      H1             19.7294396015       32.7841542534        4.6235253365  SOLV      7197            0.0000000000
     21705      7208  TIP3      H2             18.7264396015       32.7758442534        3.4895953365  SOLV      7197            0.0000000000
     21706      7209  TIP3      OH2            28.6944296015       33.4231442534        1.7154353365  SOLV      7198            0.0000000000
     21707      7209  TIP3      H1             27.7594096015       33.5233342534        1.8941353365  SOLV      7198            0.0000000000
     21708      7209  TIP3      H2             28.9746196015       32.7137442534        2.2937553365  SOLV      7198            0.0000000000
     21709      7210  TIP3      OH2            31.6830196015       22.4903742534       13.7619953365  SOLV      7199            0.0000000000
     21710      7210  TIP3      H1             31.2756996015       22.9709342534       13.0413253365  SOLV      7199            0.0000000000
     21711      7210  TIP3      H2             31.7235896015       21.5849742534       13.4540753365  SOLV      7199            0.0000000000
     21712      7211  TIP3      OH2            18.8319696015       28.8743142534       11.7586653365  SOLV      7200            0.0000000000
     21713      7211  TIP3      H1             19.0480996015       28.5128742534       12.6182453365  SOLV      7200            0.0000000000
     21714      7211  TIP3      H2             17.9764396015       28.4996942534       11.5490153365  SOLV      7200            0.0000000000
     21715      7212  TIP3      OH2            21.4507696015       17.3443642534        7.7540853365  SOLV      7201            0.0000000000
     21716      7212  TIP3      H1             20.5891396015       17.2571842534        7.3463753365  SOLV      7201            0.0000000000
     21717      7212  TIP3      H2             21.4283396015       18.2003742534        8.1818453365  SOLV      7201            0.0000000000
     21718      7213  TIP3      OH2            26.1135496015       17.0664042534       11.1287853365  SOLV      7202            0.0000000000
     21719      7213  TIP3      H1             26.5338596015       16.6511142534       11.8818453365  SOLV      7202            0.0000000000
     21720      7213  TIP3      H2             25.1805096015       16.8877342534       11.2459853365  SOLV      7202            0.0000000000
     21721      7214  TIP3      OH2            29.4400396015       20.8219242534       11.9822353365  SOLV      7203            0.0000000000
     21722      7214  TIP3      H1             28.9259896015       20.6961442534       12.7798353365  SOLV      7203            0.0000000000
     21723      7214  TIP3      H2             29.2845096015       21.7342342534       11.7378553365  SOLV      7203            0.0000000000
     21724      7215  TIP3      OH2            25.7752796015       19.5587442534       -1.5861346635  SOLV      7204            0.0000000000
     21725      7215  TIP3      H1             25.5217596015       19.5779042534       -0.6633246635  SOLV      7204            0.0000000000
     21726      7215  TIP3      H2             25.5184896015       18.6872842534       -1.8875146635  SOLV      7204            0.0000000000
     21727      7216  TIP3      OH2            21.5417796015       22.3098142534        8.8491053365  SOLV      7205            0.0000000000
     21728      7216  TIP3      H1             20.8999896015       22.2695442534        9.5581153365  SOLV      7205            0.0000000000
     21729      7216  TIP3      H2             21.5789796015       23.2362842534        8.6114053365  SOLV      7205            0.0000000000
     21730      7217  TIP3      OH2            21.5386896015       22.5308242534        3.7611053365  SOLV      7206            0.0000000000
     21731      7217  TIP3      H1             20.6459796015       22.1904342534        3.7024853365  SOLV      7206            0.0000000000
     21732      7217  TIP3      H2             21.9893496015       22.1539142534        3.0054253365  SOLV      7206            0.0000000000
     21733      7218  TIP3      OH2            27.0742396015       22.9468542534        2.5781853365  SOLV      7207            0.0000000000
     21734      7218  TIP3      H1             26.6652696015       23.7617142534        2.2866653365  SOLV      7207            0.0000000000
     21735      7218  TIP3      H2             27.7948596015       22.8068642534        1.9638953365  SOLV      7207            0.0000000000
     21736      7219  TIP3      OH2            26.1763996015       23.1224942534       14.0662553365  SOLV      7208            0.0000000000
     21737      7219  TIP3      H1             25.6137796015       22.4176542534       14.3870353365  SOLV      7208            0.0000000000
     21738      7219  TIP3      H2             27.0027396015       23.0016842534       14.5340153365  SOLV      7208            0.0000000000
     21739      7220  TIP3      OH2            28.0790096015       22.3928942534        5.3921553365  SOLV      7209            0.0000000000
     21740      7220  TIP3      H1             27.8834596015       22.9985742534        4.6772153365  SOLV      7209            0.0000000000
     21741      7220  TIP3      H2             28.2602696015       21.5594142534        4.9577853365  SOLV      7209            0.0000000000
     21742      7221  TIP3      OH2            19.2918296015       22.6301642534       10.7163053365  SOLV      7210            0.0000000000
     21743      7221  TIP3      H1             19.2537696015       23.0303242534       11.5850153365  SOLV      7210            0.0000000000
     21744      7221  TIP3      H2             18.8009396015       21.8134042534       10.8065953365  SOLV      7210            0.0000000000
     21745      7222  TIP3      OH2            22.6575696015       20.0043942534       -2.4850946635  SOLV      7211            0.0000000000
     21746      7222  TIP3      H1             22.2266396015       19.5594042534       -1.7553546635  SOLV      7211            0.0000000000
     21747      7222  TIP3      H2             21.9394396015       20.3760242534       -2.9973446635  SOLV      7211            0.0000000000
     21748      7223  TIP3      OH2            15.8999096015       19.7463442534        4.5667753365  SOLV      7212            0.0000000000
     21749      7223  TIP3      H1             16.5306796015       19.7175542534        5.2861653365  SOLV      7212            0.0000000000
     21750      7223  TIP3      H2             16.3493396015       19.3212142534        3.8363653365  SOLV      7212            0.0000000000
     21751      7224  TIP3      OH2            17.1741196015       20.4925442534       -0.0091846635  SOLV      7213            0.0000000000
     21752      7224  TIP3      H1             17.6482896015       21.0835342534       -0.5940946635  SOLV      7213            0.0000000000
     21753      7224  TIP3      H2             16.4567596015       21.0228342534        0.3378253365  SOLV      7213            0.0000000000
     21754      7225  TIP3      OH2            27.3429296015       24.0310242534       10.0633953365  SOLV      7214            0.0000000000
     21755      7225  TIP3      H1             27.6664096015       23.3999942534        9.4204453365  SOLV      7214            0.0000000000
     21756      7225  TIP3      H2             26.9028596015       23.4962442534       10.7241353365  SOLV      7214            0.0000000000
     21757      7226  TIP3      OH2            24.1202196015       19.9585742534        4.8475153365  SOLV      7215            0.0000000000
     21758      7226  TIP3      H1             23.2093296015       20.0152542534        5.1361153365  SOLV      7215            0.0000000000
     21759      7226  TIP3      H2             24.6255096015       19.8981242534        5.6582353365  SOLV      7215            0.0000000000
     21760      7227  TIP3      OH2            18.9485596015       21.5872042534        3.6742753365  SOLV      7216            0.0000000000
     21761      7227  TIP3      H1             18.0593596015       21.6867542534        3.3342353365  SOLV      7216            0.0000000000
     21762      7227  TIP3      H2             19.2450496015       20.7455042534        3.3280653365  SOLV      7216            0.0000000000
     21763      7228  TIP3      OH2            22.6017396015       21.5874642534        1.3307353365  SOLV      7217            0.0000000000
     21764      7228  TIP3      H1             23.5332896015       21.7164642534        1.5090453365  SOLV      7217            0.0000000000
     21765      7228  TIP3      H2             22.3867696015       22.2568942534        0.6812053365  SOLV      7217            0.0000000000
     21766      7229  TIP3      OH2            28.5254096015       19.1932042534        8.1116953365  SOLV      7218            0.0000000000
     21767      7229  TIP3      H1             27.8485696015       19.3245142534        8.7756653365  SOLV      7218            0.0000000000
     21768      7229  TIP3      H2             28.0398996015       19.0381542534        7.3014653365  SOLV      7218            0.0000000000
     21769      7230  TIP3      OH2            21.2757596015       22.7816842534       -1.1026546635  SOLV      7219            0.0000000000
     21770      7230  TIP3      H1             20.7332696015       22.4020642534       -1.7938946635  SOLV      7219            0.0000000000
     21771      7230  TIP3      H2             22.1092496015       22.9761542534       -1.5312446635  SOLV      7219            0.0000000000
     21772      7231  TIP3      OH2            19.4108996015       27.3388742534       13.9965053365  SOLV      7220            0.0000000000
     21773      7231  TIP3      H1             20.1431396015       27.5934642534       14.5579553365  SOLV      7220            0.0000000000
     21774      7231  TIP3      H2             18.6307696015       27.5434142534       14.5120453365  SOLV      7220            0.0000000000
     21775      7232  TIP3      OH2            25.4401896015       22.7458742534        6.7344753365  SOLV      7221            0.0000000000
     21776      7232  TIP3      H1             26.0045296015       22.1995342534        6.1874353365  SOLV      7221            0.0000000000
     21777      7232  TIP3      H2             25.2925296015       22.2240642534        7.5232353365  SOLV      7221            0.0000000000
     21778      7233  TIP3      OH2            20.4421596015       18.8824842534        3.1529553365  SOLV      7222            0.0000000000
     21779      7233  TIP3      H1             20.1251096015       17.9800142534        3.1174953365  SOLV      7222            0.0000000000
     21780      7233  TIP3      H2             21.2235696015       18.8842242534        2.6001153365  SOLV      7222            0.0000000000
     21781      7234  TIP3      OH2            24.0667796015       21.1344842534        9.1485153365  SOLV      7223            0.0000000000
     21782      7234  TIP3      H1             23.2313096015       21.5884342534        9.2587553365  SOLV      7223            0.0000000000
     21783      7234  TIP3      H2             24.5908396015       21.4103342534        9.9005053365  SOLV      7223            0.0000000000
     21784      7235  TIP3      OH2            24.6110396015       27.3472542534        0.8331553365  SOLV      7224            0.0000000000
     21785      7235  TIP3      H1             23.8661396015       26.8397842534        0.5109453365  SOLV      7224            0.0000000000
     21786      7235  TIP3      H2             24.4767596015       27.3960542534        1.7796353365  SOLV      7224            0.0000000000
     21787      7236  TIP3      OH2            31.7609296015       26.4800742534        9.6199153365  SOLV      7225            0.0000000000
     21788      7236  TIP3      H1             32.4028096015       26.9367042534        9.0761353365  SOLV      7225            0.0000000000
     21789      7236  TIP3      H2             30.9306196015       26.5933142534        9.1573253365  SOLV      7225            0.0000000000
     21790      7237  TIP3      OH2            28.5087196015       20.1612442534       -0.9675846635  SOLV      7226            0.0000000000
     21791      7237  TIP3      H1             27.5701396015       20.2728042534       -1.1187046635  SOLV      7226            0.0000000000
     21792      7237  TIP3      H2             28.8059296015       21.0179342534       -0.6610146635  SOLV      7226            0.0000000000
     21793      7238  TIP3      OH2            26.1302496015       27.5315842534       12.0700653365  SOLV      7227            0.0000000000
     21794      7238  TIP3      H1             25.7848596015       27.1498242534       12.8770253365  SOLV      7227            0.0000000000
     21795      7238  TIP3      H2             25.9302596015       28.4649442534       12.1413553365  SOLV      7227            0.0000000000
     21796      7239  TIP3      OH2            29.2270696015       22.0285142534        0.6931553365  SOLV      7228            0.0000000000
     21797      7239  TIP3      H1             30.1189696015       21.8910142534        1.0122753365  SOLV      7228            0.0000000000
     21798      7239  TIP3      H2             29.2834296015       22.8191242534        0.1565053365  SOLV      7228            0.0000000000
     21799      7240  TIP3      OH2            19.7358696015       26.6422542534        6.6029453365  SOLV      7229            0.0000000000
     21800      7240  TIP3      H1             20.4805896015       26.6398242534        6.0015953365  SOLV      7229            0.0000000000
     21801      7240  TIP3      H2             19.8135296015       25.8186342534        7.0844553365  SOLV      7229            0.0000000000
     21802      7241  TIP3      OH2            26.7364496015       28.8056842534       -0.1413846635  SOLV      7230            0.0000000000
     21803      7241  TIP3      H1             26.4412896015       29.6324742534        0.2400953365  SOLV      7230            0.0000000000
     21804      7241  TIP3      H2             26.0334496015       28.1863742534        0.0547553365  SOLV      7230            0.0000000000
     21805      7242  TIP3      OH2            16.7438396015       25.1029442534       11.9177953365  SOLV      7231            0.0000000000
     21806      7242  TIP3      H1             16.9666996015       24.6849042534       12.7495453365  SOLV      7231            0.0000000000
     21807      7242  TIP3      H2             16.1418496015       24.4904442534       11.4950753365  SOLV      7231            0.0000000000
     21808      7243  TIP3      OH2            23.7603296015       24.6199342534       14.1307653365  SOLV      7232            0.0000000000
     21809      7243  TIP3      H1             23.4644096015       24.4542342534       13.2356753365  SOLV      7232            0.0000000000
     21810      7243  TIP3      H2             24.6918496015       24.3999642534       14.1201553365  SOLV      7232            0.0000000000
     21811      7244  TIP3      OH2            28.3806096015       29.9931342534       12.0205653365  SOLV      7233            0.0000000000
     21812      7244  TIP3      H1             27.4800396015       30.1763942534       11.7529553365  SOLV      7233            0.0000000000
     21813      7244  TIP3      H2             28.4147196015       30.2520642534       12.9414453365  SOLV      7233            0.0000000000
     21814      7245  TIP3      OH2            34.1119396015       22.2379242534        0.3878253365  SOLV      7234            0.0000000000
     21815      7245  TIP3      H1             33.5575696015       21.8417242534       -0.2844246635  SOLV      7234            0.0000000000
     21816      7245  TIP3      H2             34.2122996015       23.1484442534        0.1101553365  SOLV      7234            0.0000000000
     21817      7246  TIP3      OH2            29.5674996015       25.8319142534        7.8742253365  SOLV      7235            0.0000000000
     21818      7246  TIP3      H1             28.6391896015       25.6001042534        7.8471553365  SOLV      7235            0.0000000000
     21819      7246  TIP3      H2             30.0186096015       25.0548942534        7.5441053365  SOLV      7235            0.0000000000
     21820      7247  TIP3      OH2            22.1108096015       30.1600742534        4.0070953365  SOLV      7236            0.0000000000
     21821      7247  TIP3      H1             22.6380296015       30.9335142534        3.8069753365  SOLV      7236            0.0000000000
     21822      7247  TIP3      H2             21.2306596015       30.3849942534        3.7054953365  SOLV      7236            0.0000000000
     21823      7248  TIP3      OH2            17.8655796015       25.0224842534       -1.4056646635  SOLV      7237            0.0000000000
     21824      7248  TIP3      H1             18.4815696015       25.6492042534       -1.0261846635  SOLV      7237            0.0000000000
     21825      7248  TIP3      H2             17.0038396015       25.3384642534       -1.1340146635  SOLV      7237            0.0000000000
     21826      7249  TIP3      OH2            23.5380396015       27.8230642534        3.5835253365  SOLV      7238            0.0000000000
     21827      7249  TIP3      H1             23.2970396015       28.7485042534        3.6250553365  SOLV      7238            0.0000000000
     21828      7249  TIP3      H2             22.7973996015       27.3641942534        3.9799153365  SOLV      7238            0.0000000000
     21829      7250  TIP3      OH2            24.0526996015       31.9724242534        9.8986353365  SOLV      7239            0.0000000000
     21830      7250  TIP3      H1             24.4151696015       32.8269842534        9.6650753365  SOLV      7239            0.0000000000
     21831      7250  TIP3      H2             24.5842196015       31.6805842534       10.6392653365  SOLV      7239            0.0000000000
     21832      7251  TIP3      OH2            22.2211196015       32.8448242534        3.1287453365  SOLV      7240            0.0000000000
     21833      7251  TIP3      H1             21.2711696015       32.9505642534        3.1800753365  SOLV      7240            0.0000000000
     21834      7251  TIP3      H2             22.5729296015       33.6655642534        3.4734953365  SOLV      7240            0.0000000000
     21835      7252  TIP3      OH2            27.5967796015       28.0714942534        9.5991953365  SOLV      7241            0.0000000000
     21836      7252  TIP3      H1             27.1709096015       27.8436642534       10.4255953365  SOLV      7241            0.0000000000
     21837      7252  TIP3      H2             28.1773596015       27.3326742534        9.4167253365  SOLV      7241            0.0000000000
     21838      7253  TIP3      OH2            29.7996696015       29.0005442534       -1.3269046635  SOLV      7242            0.0000000000
     21839      7253  TIP3      H1             30.1529796015       28.6205242534       -0.5225546635  SOLV      7242            0.0000000000
     21840      7253  TIP3      H2             28.8510196015       28.9070242534       -1.2399746635  SOLV      7242            0.0000000000
     21841      7254  TIP3      OH2            18.3777896015       19.8562142534       11.4759353365  SOLV      7243            0.0000000000
     21842      7254  TIP3      H1             17.4850196015       20.1947542534       11.4083353365  SOLV      7243            0.0000000000
     21843      7254  TIP3      H2             18.2790696015       19.0008242534       11.8940153365  SOLV      7243            0.0000000000
     21844      7255  TIP3      OH2            30.6655996015       27.6727442534        0.8998853365  SOLV      7244            0.0000000000
     21845      7255  TIP3      H1             30.3883596015       26.9446742534        1.4559953365  SOLV      7244            0.0000000000
     21846      7255  TIP3      H2             31.5928996015       27.7919442534        1.1051453365  SOLV      7244            0.0000000000
     21847      7256  TIP3      OH2            18.0289896015       31.6606542534        9.9108753365  SOLV      7245            0.0000000000
     21848      7256  TIP3      H1             18.2460196015       30.7288942534        9.8798453365  SOLV      7245            0.0000000000
     21849      7256  TIP3      H2             18.2753396015       31.9351542534       10.7941553365  SOLV      7245            0.0000000000
     21850      7257  TIP3      OH2            23.8904496015       30.1121542534       -2.8799046635  SOLV      7246            0.0000000000
     21851      7257  TIP3      H1             24.1294296015       29.3639642534       -3.4270146635  SOLV      7246            0.0000000000
     21852      7257  TIP3      H2             23.6215796015       29.7243242534       -2.0471246635  SOLV      7246            0.0000000000
     21853      7258  TIP3      OH2            22.8275096015       29.6825342534       -0.4236446635  SOLV      7247            0.0000000000
     21854      7258  TIP3      H1             22.9743096015       29.1625142534        0.3664453365  SOLV      7247            0.0000000000
     21855      7258  TIP3      H2             22.8246796015       30.5892942534       -0.1170546635  SOLV      7247            0.0000000000
     21856      7259  TIP3      OH2            19.2806196015       26.9348642534        0.0868953365  SOLV      7248            0.0000000000
     21857      7259  TIP3      H1             18.5945496015       27.2871142534        0.6538653365  SOLV      7248            0.0000000000
     21858      7259  TIP3      H2             19.8034096015       27.6978242534       -0.1596746635  SOLV      7248            0.0000000000
     21859      7260  TIP3      OH2            27.1121296015       19.5972442534       10.3657953365  SOLV      7249            0.0000000000
     21860      7260  TIP3      H1             27.8109196015       19.6711142534       11.0157653365  SOLV      7249            0.0000000000
     21861      7260  TIP3      H2             26.7312696015       18.7327442534       10.5200853365  SOLV      7249            0.0000000000
     21862      7261  TIP3      OH2            27.8966196015       19.2494142534        1.4630253365  SOLV      7250            0.0000000000
     21863      7261  TIP3      H1             28.1164496015       19.7209542534        0.6595653365  SOLV      7250            0.0000000000
     21864      7261  TIP3      H2             28.4550196015       19.6436742534        2.1330853365  SOLV      7250            0.0000000000
     21865      7262  TIP3      OH2            25.0966096015       20.9772942534        2.2978653365  SOLV      7251            0.0000000000
     21866      7262  TIP3      H1             25.9088696015       21.4816142534        2.3440353365  SOLV      7251            0.0000000000
     21867      7262  TIP3      H2             24.8519096015       20.8322642534        3.2118253365  SOLV      7251            0.0000000000
     21868      7263  TIP3      OH2            25.6322496015       21.9635642534       11.4825253365  SOLV      7252            0.0000000000
     21869      7263  TIP3      H1             25.7512796015       22.5371042534       12.2395653365  SOLV      7252            0.0000000000
     21870      7263  TIP3      H2             26.2877096015       21.2755042534       11.5973053365  SOLV      7252            0.0000000000
     21871      7264  TIP3      OH2            25.9802796015       18.0585942534        3.2359753365  SOLV      7253            0.0000000000
     21872      7264  TIP3      H1             25.6336296015       18.6756542534        3.8804053365  SOLV      7253            0.0000000000
     21873      7264  TIP3      H2             26.6389696015       18.5591642534        2.7545253365  SOLV      7253            0.0000000000
     21874      7265  TIP3      OH2            21.6379796015       19.1215342534       -0.0767746635  SOLV      7254            0.0000000000
     21875      7265  TIP3      H1             21.5544596015       20.0098442534        0.2698653365  SOLV      7254            0.0000000000
     21876      7265  TIP3      H2             22.5280096015       18.8562042534        0.1549053365  SOLV      7254            0.0000000000
     21877      7266  TIP3      OH2            31.8368296015       19.8705942534       12.3174953365  SOLV      7255            0.0000000000
     21878      7266  TIP3      H1             30.9204096015       20.1327642534       12.2298653365  SOLV      7255            0.0000000000
     21879      7266  TIP3      H2             32.1723296015       19.8674942534       11.4210253365  SOLV      7255            0.0000000000
     21880      7267  TIP3      OH2            30.4389296015       23.6206942534        6.4132253365  SOLV      7256            0.0000000000
     21881      7267  TIP3      H1             29.6413696015       23.2057142534        6.0847253365  SOLV      7256            0.0000000000
     21882      7267  TIP3      H2             30.8840396015       22.9300642534        6.9042753365  SOLV      7256            0.0000000000
     21883      7268  TIP3      OH2            19.8965096015       29.5487542534       -1.0163246635  SOLV      7257            0.0000000000
     21884      7268  TIP3      H1             20.4886596015       30.2482342534       -0.7400846635  SOLV      7257            0.0000000000
     21885      7268  TIP3      H2             20.3558096015       29.1157042534       -1.7358646635  SOLV      7257            0.0000000000
     21886      7269  TIP3      OH2            18.2124296015       22.2130542534       -1.9003846635  SOLV      7258            0.0000000000
     21887      7269  TIP3      H1             18.1676896015       23.1523642534       -1.7216846635  SOLV      7258            0.0000000000
     21888      7269  TIP3      H2             17.3247496015       21.9775442534       -2.1701746635  SOLV      7258            0.0000000000
     21889      7270  TIP3      OH2            19.0206296015       16.9947142534        6.7727153365  SOLV      7259            0.0000000000
     21890      7270  TIP3      H1             18.7916096015       17.0539642534        5.8452153365  SOLV      7259            0.0000000000
     21891      7270  TIP3      H2             18.5779696015       16.2032642534        7.0791253365  SOLV      7259            0.0000000000
     21892      7271  TIP3      OH2            17.2393296015       33.5477942534       14.2630953365  SOLV      7260            0.0000000000
     21893      7271  TIP3      H1             17.7795496015       33.3311942534       15.0230153365  SOLV      7260            0.0000000000
     21894      7271  TIP3      H2             16.7581296015       32.7423942534       14.0733453365  SOLV      7260            0.0000000000
     21895      7272  TIP3      OH2            21.8366696015       32.4672342534       15.8835153365  SOLV      7261            0.0000000000
     21896      7272  TIP3      H1             22.6043896015       32.0083142534       16.2244353365  SOLV      7261            0.0000000000
     21897      7272  TIP3      H2             21.8152896015       32.2412142534       14.9536353365  SOLV      7261            0.0000000000
     21898      7273  TIP3      OH2            28.4135396015       30.8473442534       14.6126653365  SOLV      7262            0.0000000000
     21899      7273  TIP3      H1             28.0624896015       29.9906442534       14.8557053365  SOLV      7262            0.0000000000
     21900      7273  TIP3      H2             29.1398596015       30.9900142534       15.2195653365  SOLV      7262            0.0000000000
     21901      7274  TIP3      OH2            17.1462796015       27.3582042534       15.2175253365  SOLV      7263            0.0000000000
     21902      7274  TIP3      H1             17.2903296015       26.4562742534       14.9311953365  SOLV      7263            0.0000000000
     21903      7274  TIP3      H2             16.3740196015       27.6444142534       14.7297553365  SOLV      7263            0.0000000000
     21904      7275  TIP3      OH2            21.4876496015       27.7017742534       -2.6500146635  SOLV      7264            0.0000000000
     21905      7275  TIP3      H1             21.5520596015       26.9077342534       -2.1193746635  SOLV      7264            0.0000000000
     21906      7275  TIP3      H2             22.1405696015       27.5830542534       -3.3398146635  SOLV      7264            0.0000000000
     21907      7276  TIP3      OH2            23.8018896015       27.3280142534       14.6501653365  SOLV      7265            0.0000000000
     21908      7276  TIP3      H1             23.4732696015       27.5988242534       13.7929053365  SOLV      7265            0.0000000000
     21909      7276  TIP3      H2             23.9537096015       26.3869942534       14.5626653365  SOLV      7265            0.0000000000
     21910      7277  TIP3      OH2            26.8399896015       28.7489442534       -2.9142146635  SOLV      7266            0.0000000000
     21911      7277  TIP3      H1             26.5713996015       28.9291542534       -2.0133246635  SOLV      7266            0.0000000000
     21912      7277  TIP3      H2             26.6335496015       27.8235642534       -3.0456346635  SOLV      7266            0.0000000000
     21913      7278  TIP3      OH2            29.5364096015       27.2437442534       12.0333953365  SOLV      7267            0.0000000000
     21914      7278  TIP3      H1             30.2818896015       27.8321142534       11.9137953365  SOLV      7267            0.0000000000
     21915      7278  TIP3      H2             28.7790896015       27.8257142534       12.0967053365  SOLV      7267            0.0000000000
     21916      7279  TIP3      OH2            17.9789296015       24.5585342534       14.6374553365  SOLV      7268            0.0000000000
     21917      7279  TIP3      H1             18.3870496015       23.7011942534       14.5165153365  SOLV      7268            0.0000000000
     21918      7279  TIP3      H2             17.7186896015       24.5726642534       15.5584853365  SOLV      7268            0.0000000000
     21919      7280  TIP3      OH2            22.6370296015       25.6743942534       -0.3442146635  SOLV      7269            0.0000000000
     21920      7280  TIP3      H1             22.1772296015       25.1902242534        0.3416353365  SOLV      7269            0.0000000000
     21921      7280  TIP3      H2             22.8918996015       25.0059342534       -0.9801646635  SOLV      7269            0.0000000000
     21922      7281  TIP3      OH2            21.9259596015       23.5671042534       12.0117453365  SOLV      7270            0.0000000000
     21923      7281  TIP3      H1             21.3075696015       24.2417642534       12.2922153365  SOLV      7270            0.0000000000
     21924      7281  TIP3      H2             22.2700796015       23.8884942534       11.1783653365  SOLV      7270            0.0000000000
     21925      7282  TIP3      OH2            26.9457796015       26.0386342534       15.2892253365  SOLV      7271            0.0000000000
     21926      7282  TIP3      H1             27.8988996015       26.1225442534       15.2618253365  SOLV      7271            0.0000000000
     21927      7282  TIP3      H2             26.7852396015       25.3268142534       15.9087153365  SOLV      7271            0.0000000000
     21928      7283  TIP3      OH2            22.2653296015       20.9221842534       13.0940553365  SOLV      7272            0.0000000000
     21929      7283  TIP3      H1             22.4154196015       20.1933142534       12.4920253365  SOLV      7272            0.0000000000
     21930      7283  TIP3      H2             22.2675696015       21.6993542534       12.5352753365  SOLV      7272            0.0000000000
     21931      7284  TIP3      OH2            22.6778996015       19.2917642534       10.5867953365  SOLV      7273            0.0000000000
     21932      7284  TIP3      H1             23.2136496015       19.7434342534        9.9347253365  SOLV      7273            0.0000000000
     21933      7284  TIP3      H2             21.8258596015       19.1837442534       10.1642053365  SOLV      7273            0.0000000000
     21934      7285  TIP3      OH2            24.2597396015       24.7313842534       10.8263153365  SOLV      7274            0.0000000000
     21935      7285  TIP3      H1             25.0102196015       24.5751342534       10.2530953365  SOLV      7274            0.0000000000
     21936      7285  TIP3      H2             23.9205696015       25.5830442534       10.5508653365  SOLV      7274            0.0000000000
     21937      7286  TIP3      OH2            28.6753596015       22.5465642534       15.8548453365  SOLV      7275            0.0000000000
     21938      7286  TIP3      H1             28.8674896015       21.6155042534       15.7432953365  SOLV      7275            0.0000000000
     21939      7286  TIP3      H2             29.5329896015       22.9715142534       15.8443853365  SOLV      7275            0.0000000000
     21940      7287  TIP3      OH2            29.9920796015       25.3350842534       13.9321153365  SOLV      7276            0.0000000000
     21941      7287  TIP3      H1             29.7105796015       26.0445442534       13.3544953365  SOLV      7276            0.0000000000
     21942      7287  TIP3      H2             30.9345096015       25.2623842534       13.7812353365  SOLV      7276            0.0000000000
     21943      7288  TIP3      OH2            20.7439596015       22.1205342534       15.0056153365  SOLV      7277            0.0000000000
     21944      7288  TIP3      H1             19.9768596015       21.5880142534       14.7953753365  SOLV      7277            0.0000000000
     21945      7288  TIP3      H2             21.4228596015       21.8105742534       14.4062453365  SOLV      7277            0.0000000000
     21946      7289  TIP3      OH2            23.4834496015       16.7483342534       11.0181553365  SOLV      7278            0.0000000000
     21947      7289  TIP3      H1             23.3854096015       17.6946542534       10.9127753365  SOLV      7278            0.0000000000
     21948      7289  TIP3      H2             22.7410696015       16.3757142534       10.5425053365  SOLV      7278            0.0000000000
     21949      7290  TIP3      OH2            24.7474996015       21.0698742534       14.5819953365  SOLV      7279            0.0000000000
     21950      7290  TIP3      H1             24.5120396015       20.8505442534       15.4834853365  SOLV      7279            0.0000000000
     21951      7290  TIP3      H2             23.9641896015       20.8629942534       14.0722453365  SOLV      7279            0.0000000000
     21952      7291  TIP3      OH2            27.4631596015       20.1972242534       13.6573453365  SOLV      7280            0.0000000000
     21953      7291  TIP3      H1             26.5156996015       20.2291942534       13.7896753365  SOLV      7280            0.0000000000
     21954      7291  TIP3      H2             27.7758296015       19.5719342534       14.3111653365  SOLV      7280            0.0000000000
     21955      7292  TIP3      OH2            29.0973096015       18.8313342534       15.6625353365  SOLV      7281            0.0000000000
     21956      7292  TIP3      H1             29.0004896015       17.8790642534       15.6567253365  SOLV      7281            0.0000000000
     21957      7292  TIP3      H2             28.7756196015       19.1000142534       16.5230853365  SOLV      7281            0.0000000000
     21958      7293  TIP3      OH2            18.9242396015       20.0409142534       14.7100853365  SOLV      7282            0.0000000000
     21959      7293  TIP3      H1             19.1359796015       19.3345242534       14.0998353365  SOLV      7282            0.0000000000
     21960      7293  TIP3      H2             18.8129896015       19.6035142534       15.5542053365  SOLV      7282            0.0000000000
     21961      7294  TIP3      OH2            23.7052596015       16.0420742534       13.6894353365  SOLV      7283            0.0000000000
     21962      7294  TIP3      H1             24.4170996015       15.4022942534       13.6753453365  SOLV      7283            0.0000000000
     21963      7294  TIP3      H2             23.6042996015       16.3089042534       12.7757453365  SOLV      7283            0.0000000000
     21964      7295  TIP3      OH2            24.0590096015       17.7249142534       15.7430653365  SOLV      7284            0.0000000000
     21965      7295  TIP3      H1             23.9272296015       17.2492942534       14.9229153365  SOLV      7284            0.0000000000
     21966      7295  TIP3      H2             23.4597496015       18.4692742534       15.6877753365  SOLV      7284            0.0000000000
     21967      7296  TIP3      OH2            23.6052396015       34.6079442534       -1.0805346635  SOLV      7285            0.0000000000
     21968      7296  TIP3      H1             24.5383096015       34.7658142534       -0.9366946635  SOLV      7285            0.0000000000
     21969      7296  TIP3      H2             23.3411196015       35.2832442534       -1.7053846635  SOLV      7285            0.0000000000
     21970      7297  TIP3      OH2            17.1737296015       29.2443242534       -1.5977246635  SOLV      7286            0.0000000000
     21971      7297  TIP3      H1             18.0876496015       29.3232142534       -1.3243346635  SOLV      7286            0.0000000000
     21972      7297  TIP3      H2             17.1810396015       28.5572842534       -2.2641646635  SOLV      7286            0.0000000000
     21973      7298  TIP3      OH2            15.8227896015       34.6371742534        3.4796653365  SOLV      7287            0.0000000000
     21974      7298  TIP3      H1             15.1754996015       34.1753442534        2.9467853365  SOLV      7287            0.0000000000
     21975      7298  TIP3      H2             16.1772496015       33.9655042534        4.0622853365  SOLV      7287            0.0000000000
     21976      7299  TIP3      OH2            16.6927096015       32.7178742534        5.2842853365  SOLV      7288            0.0000000000
     21977      7299  TIP3      H1             16.3583896015       31.8376042534        5.4563053365  SOLV      7288            0.0000000000
     21978      7299  TIP3      H2             16.9149496015       33.0633742534        6.1488453365  SOLV      7288            0.0000000000
     21979      7300  TIP3      OH2            33.9507396015       25.1945442534        3.1625253365  SOLV      7289            0.0000000000
     21980      7300  TIP3      H1             33.2241996015       24.7148042534        3.5602853365  SOLV      7289            0.0000000000
     21981      7300  TIP3      H2             34.5320696015       25.4000142534        3.8946853365  SOLV      7289            0.0000000000
     21982      7301  TIP3      OH2            34.2190496015       25.0953942534       -0.4463446635  SOLV      7290            0.0000000000
     21983      7301  TIP3      H1             33.6971596015       25.4518042534       -1.1652546635  SOLV      7290            0.0000000000
     21984      7301  TIP3      H2             34.1859696015       25.7701742534        0.2317453365  SOLV      7290            0.0000000000
     21985      7302  TIP3      OH2            32.5679496015       22.3349542534       -1.8956346635  SOLV      7291            0.0000000000
     21986      7302  TIP3      H1             32.6643896015       23.0016542534       -2.5756646635  SOLV      7291            0.0000000000
     21987      7302  TIP3      H2             32.4279096015       21.5195842534       -2.3770846635  SOLV      7291            0.0000000000
     21988      7303  TIP3      OH2            31.7374196015       23.7151942534        3.7253953365  SOLV      7292            0.0000000000
     21989      7303  TIP3      H1             31.5872996015       22.7700542534        3.7051753365  SOLV      7292            0.0000000000
     21990      7303  TIP3      H2             31.3838696015       23.9963342534        4.5693053365  SOLV      7292            0.0000000000
     21991      7304  TIP3      OH2            16.7726596015       25.7934142534        7.7357753365  SOLV      7293            0.0000000000
     21992      7304  TIP3      H1             16.9569496015       25.7115842534        6.8000653365  SOLV      7293            0.0000000000
     21993      7304  TIP3      H2             17.6219496015       25.6691142534        8.1594153365  SOLV      7293            0.0000000000
     21994      7305  TIP3      OH2            32.5937096015       25.6855242534       13.3642253365  SOLV      7294            0.0000000000
     21995      7305  TIP3      H1             33.1764396015       24.9507542534       13.5559453365  SOLV      7294            0.0000000000
     21996      7305  TIP3      H2             33.1576396015       26.4575542534       13.4108053365  SOLV      7294            0.0000000000
     21997      7306  TIP3      OH2            34.0904196015       23.5881042534       14.0487653365  SOLV      7295            0.0000000000
     21998      7306  TIP3      H1             33.2270896015       23.2093142534       13.8832353365  SOLV      7295            0.0000000000
     21999      7306  TIP3      H2             34.6947896015       22.8495842534       13.9743453365  SOLV      7295            0.0000000000
     22000      7307  TIP3      OH2            31.8153296015       19.7429342534       -2.7780846635  SOLV      7296            0.0000000000
     22001      7307  TIP3      H1             32.4259096015       19.3716142534       -2.1412646635  SOLV      7296            0.0000000000
     22002      7307  TIP3      H2             30.9784796015       19.3216242534       -2.5820846635  SOLV      7296            0.0000000000
     22003      7308  TIP3      OH2            31.4478996015       21.2977742534        2.1879053365  SOLV      7297            0.0000000000
     22004      7308  TIP3      H1             31.7276096015       20.3908142534        2.3120753365  SOLV      7297            0.0000000000
     22005      7308  TIP3      H2             32.2070696015       21.7319242534        1.7988253365  SOLV      7297            0.0000000000
     22006      7309  TIP3      OH2            32.0597296015       21.8795142534        7.6237953365  SOLV      7298            0.0000000000
     22007      7309  TIP3      H1             32.9925296015       22.0915042534        7.5893953365  SOLV      7298            0.0000000000
     22008      7309  TIP3      H2             31.8244796015       21.9807242534        8.5460953365  SOLV      7298            0.0000000000
     22009      7310  TIP3      OH2            32.0889196015       22.6160442534       10.3997353365  SOLV      7299            0.0000000000
     22010      7310  TIP3      H1             31.2460496015       22.8840842534       10.7657153365  SOLV      7299            0.0000000000
     22011      7310  TIP3      H2             32.5313496015       23.4382342534       10.1888453365  SOLV      7299            0.0000000000
     22012      7311  TIP3      OH2            16.3701396015       21.0639142534       13.8766553365  SOLV      7300            0.0000000000
     22013      7311  TIP3      H1             17.2896296015       20.9417442534       14.1129653365  SOLV      7300            0.0000000000
     22014      7311  TIP3      H2             15.9205896015       20.3138842534       14.2660053365  SOLV      7300            0.0000000000
     22015      7312  TIP3      OH2            34.3720796015       16.5960642534       15.7532353365  SOLV      7301            0.0000000000
     22016      7312  TIP3      H1             34.7217796015       15.9424142534       15.1477053365  SOLV      7301            0.0000000000
     22017      7312  TIP3      H2             34.5190296015       17.4334742534       15.3134953365  SOLV      7301            0.0000000000
     22018      7313  TIP3      OH2            32.0613796015       18.5607042534        2.2361053365  SOLV      7302            0.0000000000
     22019      7313  TIP3      H1             32.2438796015       18.1118542534        3.0616053365  SOLV      7302            0.0000000000
     22020      7313  TIP3      H2             31.4616696015       17.9761442534        1.7725653365  SOLV      7302            0.0000000000
     22021      7314  TIP3      OH2            17.5913896015       19.3760742534        6.7679453365  SOLV      7303            0.0000000000
     22022      7314  TIP3      H1             18.0365496015       18.5843242534        7.0699153365  SOLV      7303            0.0000000000
     22023      7314  TIP3      H2             18.0576896015       20.0925942534        7.1985053365  SOLV      7303            0.0000000000
     22024      7315  TIP3      OH2            15.8954196015       22.3753742534        7.8369653365  SOLV      7304            0.0000000000
     22025      7315  TIP3      H1             16.3873996015       22.1544242534        7.0461653365  SOLV      7304            0.0000000000
     22026      7315  TIP3      H2             16.2575096015       23.2157142534        8.1179153365  SOLV      7304            0.0000000000
     22027      7316  TIP3      OH2            33.8917996015       18.7055242534       14.1023653365  SOLV      7305            0.0000000000
     22028      7316  TIP3      H1             32.9743696015       18.9762342534       14.0667153365  SOLV      7305            0.0000000000
     22029      7316  TIP3      H2             34.0147396015       18.1703642534       13.3183353365  SOLV      7305            0.0000000000
     22030      7317  TIP3      OH2            33.9279996015       18.6285142534       -1.2358646635  SOLV      7306            0.0000000000
     22031      7317  TIP3      H1             34.3402596015       17.9070842534       -1.7110646635  SOLV      7306            0.0000000000
     22032      7317  TIP3      H2             34.6096496015       19.2979742534       -1.1774346635  SOLV      7306            0.0000000000
     22033      7318  TIP3      OH2            16.2090696015       18.6332842534        1.8912053365  SOLV      7307            0.0000000000
     22034      7318  TIP3      H1             15.2839096015       18.8419442534        1.7617553365  SOLV      7307            0.0000000000
     22035      7318  TIP3      H2             16.6630596015       19.1173642534        1.2014353365  SOLV      7307            0.0000000000
     22036      7319  TIP3      OH2            16.1726096015       17.3711842534       10.2354553365  SOLV      7308            0.0000000000
     22037      7319  TIP3      H1             15.5076596015       17.1252142534       10.8785453365  SOLV      7308            0.0000000000
     22038      7319  TIP3      H2             15.7297396015       17.9932242534        9.6582553365  SOLV      7308            0.0000000000
     22039      7320  TIP3      OH2            18.3645396015       30.5465942534       14.3800353365  SOLV      7309            0.0000000000
     22040      7320  TIP3      H1             17.5437896015       30.7212442534       13.9195053365  SOLV      7309            0.0000000000
     22041      7320  TIP3      H2             18.1123196015       30.4730642534       15.3004753365  SOLV      7309            0.0000000000
     22042      7321  TIP3      OH2            21.3188296015       31.5207142534       10.6384353365  SOLV      7310            0.0000000000
     22043      7321  TIP3      H1             20.8939396015       32.3305642534       10.3558953365  SOLV      7310            0.0000000000
     22044      7321  TIP3      H2             22.2231096015       31.6061242534       10.3364153365  SOLV      7310            0.0000000000
     22045      7322  TIP3      OH2            25.6299696015       32.9197142534       13.5978053365  SOLV      7311            0.0000000000
     22046      7322  TIP3      H1             25.8147196015       32.5863242534       14.4758353365  SOLV      7311            0.0000000000
     22047      7322  TIP3      H2             26.4764196015       33.2295742534       13.2757253365  SOLV      7311            0.0000000000
     22048      7323  TIP3      OH2            32.8923896015       16.7951542534       11.9214453365  SOLV      7312            0.0000000000
     22049      7323  TIP3      H1             32.0797396015       17.1201842534       11.5339153365  SOLV      7312            0.0000000000
     22050      7323  TIP3      H2             33.1252396015       16.0350042534       11.3883553365  SOLV      7312            0.0000000000
     22051      7324  TIP3      OH2            18.7204996015       34.7771042534       10.6859653365  SOLV      7313            0.0000000000
     22052      7324  TIP3      H1             18.0001396015       35.2172042534       10.2347353365  SOLV      7313            0.0000000000
     22053      7324  TIP3      H2             18.3548996015       34.5265742534       11.5343653365  SOLV      7313            0.0000000000
     22054      7325  TIP3      OH2            21.1877596015       34.3774942534        9.7156853365  SOLV      7314            0.0000000000
     22055      7325  TIP3      H1             20.3229796015       34.4493442534       10.1196953365  SOLV      7314            0.0000000000
     22056      7325  TIP3      H2             21.1326596015       34.9242242534        8.9319353365  SOLV      7314            0.0000000000
     22057      7326  TIP3      OH2            25.8983196015       34.2653842534        8.8912853365  SOLV      7315            0.0000000000
     22058      7326  TIP3      H1             25.4417196015       34.7943542534        8.2371253365  SOLV      7315            0.0000000000
     22059      7326  TIP3      H2             26.0611196015       34.8685242534        9.6165153365  SOLV      7315            0.0000000000
     22060      7327  TIP3      OH2            28.2259496015       33.1433442534        9.8363153365  SOLV      7316            0.0000000000
     22061      7327  TIP3      H1             27.3213196015       33.3083642534        9.5705253365  SOLV      7316            0.0000000000
     22062      7327  TIP3      H2             28.6548096015       33.9965642534        9.7706553365  SOLV      7316            0.0000000000
     22063      7328  TIP3      OH2            18.1353096015       33.4003542534        7.5961453365  SOLV      7317            0.0000000000
     22064      7328  TIP3      H1             18.1169096015       32.9748642534        8.4533753365  SOLV      7317            0.0000000000
     22065      7328  TIP3      H2             18.9400996015       33.0818542534        7.1873653365  SOLV      7317            0.0000000000
     22066      7329  TIP3      OH2            20.2766196015       32.1102242534        6.2511353365  SOLV      7318            0.0000000000
     22067      7329  TIP3      H1             20.0576896015       31.1939642534        6.4207353365  SOLV      7318            0.0000000000
     22068      7329  TIP3      H2             21.1008396015       32.2502642534        6.7172753365  SOLV      7318            0.0000000000
     22069      7330  TIP3      OH2            22.8138696015       32.5801542534        7.0999353365  SOLV      7319            0.0000000000
     22070      7330  TIP3      H1             23.0264396015       31.6920542534        6.8130253365  SOLV      7319            0.0000000000
     22071      7330  TIP3      H2             22.8783796015       32.5459242534        8.0543353365  SOLV      7319            0.0000000000
     22072      7331  TIP3      OH2            26.3222396015       18.2442142534        6.2442653365  SOLV      7320            0.0000000000
     22073      7331  TIP3      H1             25.6479196015       17.6147742534        6.4998453365  SOLV      7320            0.0000000000
     22074      7331  TIP3      H2             26.8861596015       17.7601042534        5.6410553365  SOLV      7320            0.0000000000
     22075      7332  TIP3      OH2            31.4649596015       16.3516142534        6.3569753365  SOLV      7321            0.0000000000
     22076      7332  TIP3      H1             32.0687196015       16.8991542534        5.8550753365  SOLV      7321            0.0000000000
     22077      7332  TIP3      H2             30.5951596015       16.6706542534        6.1163853365  SOLV      7321            0.0000000000
     22078      7333  TIP3      OH2            33.1919996015       17.4904842534        4.6900653365  SOLV      7322            0.0000000000
     22079      7333  TIP3      H1             33.8037496015       16.9760542534        4.1634253365  SOLV      7322            0.0000000000
     22080      7333  TIP3      H2             33.5743396015       18.3676942534        4.7135053365  SOLV      7322            0.0000000000
     22081      7334  TIP3      OH2            18.6489896015       16.8782442534        4.0662553365  SOLV      7323            0.0000000000
     22082      7334  TIP3      H1             17.8719696015       16.6437342534        3.5588453365  SOLV      7323            0.0000000000
     22083      7334  TIP3      H2             19.1793496015       16.0814542534        4.0750553365  SOLV      7323            0.0000000000
     22084      7335  TIP3      OH2            17.4853296015       16.6760542534       -0.1301346635  SOLV      7324            0.0000000000
     22085      7335  TIP3      H1             17.9243996015       17.2871042534       -0.7217846635  SOLV      7324            0.0000000000
     22086      7335  TIP3      H2             16.8515696015       17.2144642534        0.3438653365  SOLV      7324            0.0000000000
     22087      7336  TIP3      OH2            23.2282496015       16.8049542534        3.8795653365  SOLV      7325            0.0000000000
     22088      7336  TIP3      H1             24.1025896015       17.1933842534        3.8499953365  SOLV      7325            0.0000000000
     22089      7336  TIP3      H2             23.0923296015       16.5897342534        4.8022853365  SOLV      7325            0.0000000000
     22090      7337  TIP3      OH2            28.7850896015       16.8349342534        5.5287353365  SOLV      7326            0.0000000000
     22091      7337  TIP3      H1             28.8612496015       16.9300942534        4.5793353365  SOLV      7326            0.0000000000
     22092      7337  TIP3      H2             28.5100096015       15.9272242534        5.6576453365  SOLV      7326            0.0000000000
     22093      7338  TIP3      OH2            30.1383496015       16.8607142534        1.2212353365  SOLV      7327            0.0000000000
     22094      7338  TIP3      H1             29.4354596015       17.4756342534        1.0113753365  SOLV      7327            0.0000000000
     22095      7338  TIP3      H2             29.6934896015       16.0233842534        1.3523253365  SOLV      7327            0.0000000000
     22096      7339  TIP3      OH2            17.3862796015       32.6242742534        0.7673753365  SOLV      7328            0.0000000000
     22097      7339  TIP3      H1             16.7012696015       32.5861642534        0.0998853365  SOLV      7328            0.0000000000
     22098      7339  TIP3      H2             17.3899996015       33.5370342534        1.0555853365  SOLV      7328            0.0000000000
     22099      7340  TIP3      OH2            19.3462396015       18.5922042534       -1.6877246635  SOLV      7329            0.0000000000
     22100      7340  TIP3      H1             19.8375796015       17.9624442534       -2.2151746635  SOLV      7329            0.0000000000
     22101      7340  TIP3      H2             19.9698696015       18.8881442534       -1.0246046635  SOLV      7329            0.0000000000
     22102      7341  TIP3      OH2            24.3722496015       18.8853542534        0.7693253365  SOLV      7330            0.0000000000
     22103      7341  TIP3      H1             24.5503796015       18.2386742534        1.4521853365  SOLV      7330            0.0000000000
     22104      7341  TIP3      H2             24.3188696015       19.7191242534        1.2364353365  SOLV      7330            0.0000000000
     22105      7342  TIP3      OH2            18.6067896015       17.3924342534       13.5838753365  SOLV      7331            0.0000000000
     22106      7342  TIP3      H1             18.2406096015       16.6266942534       14.0263453365  SOLV      7331            0.0000000000
     22107      7342  TIP3      H2             19.5196396015       17.4214542534       13.8703853365  SOLV      7331            0.0000000000
     22108      7343  TIP3      OH2            20.5798696015       16.7428742534       15.1195853365  SOLV      7332            0.0000000000
     22109      7343  TIP3      H1             21.4782296015       16.4688942534       14.9349253365  SOLV      7332            0.0000000000
     22110      7343  TIP3      H2             20.1931796015       16.0004742534       15.5838453365  SOLV      7332            0.0000000000
     22111      7344  TIP3      OH2            19.2043996015       33.5443542534       -2.2074146635  SOLV      7333            0.0000000000
     22112      7344  TIP3      H1             18.9368596015       33.8306442534       -1.3341046635  SOLV      7333            0.0000000000
     22113      7344  TIP3      H2             19.9756596015       32.9982742534       -2.0551646635  SOLV      7333            0.0000000000
     22114      7345  TIP3      OH2            29.0010996015       16.0754042534       15.3018653365  SOLV      7334            0.0000000000
     22115      7345  TIP3      H1             29.0778196015       15.6494742534       16.1556353365  SOLV      7334            0.0000000000
     22116      7345  TIP3      H2             29.8947596015       16.0888742534       14.9592153365  SOLV      7334            0.0000000000
     22117      7346  TIP3      OH2            35.4182396015       23.0139042534        2.9646053365  SOLV      7335            0.0000000000
     22118      7346  TIP3      H1             34.9705796015       23.8597742534        2.9462553365  SOLV      7335            0.0000000000
     22119      7346  TIP3      H2             34.8573596015       22.4343242534        2.4491153365  SOLV      7335            0.0000000000
     22120      7347  TIP3      OH2            34.7559096015       19.7463442534        4.5667753365  SOLV      7336            0.0000000000
     22121      7347  TIP3      H1             35.3866796015       19.7175542534        5.2861653365  SOLV      7336            0.0000000000
     22122      7347  TIP3      H2             35.2053396015       19.3212142534        3.8363653365  SOLV      7336            0.0000000000
     22123      7348  TIP3      OH2            36.0301196015       20.4925442534       -0.0091846635  SOLV      7337            0.0000000000
     22124      7348  TIP3      H1             36.5042896015       21.0835342534       -0.5940946635  SOLV      7337            0.0000000000
     22125      7348  TIP3      H2             35.3127596015       21.0228342534        0.3378253365  SOLV      7337            0.0000000000
     22126      7349  TIP3      OH2            37.2337896015       19.8562142534       11.4759353365  SOLV      7338            0.0000000000
     22127      7349  TIP3      H1             36.3410196015       20.1947542534       11.4083353365  SOLV      7338            0.0000000000
     22128      7349  TIP3      H2             37.1350696015       19.0008242534       11.8940153365  SOLV      7338            0.0000000000
     22129      7350  TIP3      OH2            37.8766296015       16.9947142534        6.7727153365  SOLV      7339            0.0000000000
     22130      7350  TIP3      H1             37.6476096015       17.0539642534        5.8452153365  SOLV      7339            0.0000000000
     22131      7350  TIP3      H2             37.4339696015       16.2032642534        7.0791253365  SOLV      7339            0.0000000000
     22132      7351  TIP3      OH2            37.7802396015       20.0409142534       14.7100853365  SOLV      7340            0.0000000000
     22133      7351  TIP3      H1             37.9919796015       19.3345242534       14.0998353365  SOLV      7340            0.0000000000
     22134      7351  TIP3      H2             37.6689896015       19.6035142534       15.5542053365  SOLV      7340            0.0000000000
     22135      7352  TIP3      OH2            35.2261396015       21.0639142534       13.8766553365  SOLV      7341            0.0000000000
     22136      7352  TIP3      H1             36.1456296015       20.9417442534       14.1129653365  SOLV      7341            0.0000000000
     22137      7352  TIP3      H2             34.7765896015       20.3138842534       14.2660053365  SOLV      7341            0.0000000000
     22138      7353  TIP3      OH2            36.4473896015       19.3760742534        6.7679453365  SOLV      7342            0.0000000000
     22139      7353  TIP3      H1             36.8925496015       18.5843242534        7.0699153365  SOLV      7342            0.0000000000
     22140      7353  TIP3      H2             36.9136896015       20.0925942534        7.1985053365  SOLV      7342            0.0000000000
     22141      7354  TIP3      OH2            34.7514196015       22.3753742534        7.8369653365  SOLV      7343            0.0000000000
     22142      7354  TIP3      H1             35.2433996015       22.1544242534        7.0461653365  SOLV      7343            0.0000000000
     22143      7354  TIP3      H2             35.1135096015       23.2157142534        8.1179153365  SOLV      7343            0.0000000000
     22144      7355  TIP3      OH2            35.0650696015       18.6332842534        1.8912053365  SOLV      7344            0.0000000000
     22145      7355  TIP3      H1             34.1399096015       18.8419442534        1.7617553365  SOLV      7344            0.0000000000
     22146      7355  TIP3      H2             35.5190596015       19.1173642534        1.2014353365  SOLV      7344            0.0000000000
     22147      7356  TIP3      OH2            35.0286096015       17.3711842534       10.2354553365  SOLV      7345            0.0000000000
     22148      7356  TIP3      H1             34.3636596015       17.1252142534       10.8785453365  SOLV      7345            0.0000000000
     22149      7356  TIP3      H2             34.5857396015       17.9932242534        9.6582553365  SOLV      7345            0.0000000000
     22150      7357  TIP3      OH2            37.5049896015       16.8782442534        4.0662553365  SOLV      7346            0.0000000000
     22151      7357  TIP3      H1             36.7279696015       16.6437342534        3.5588453365  SOLV      7346            0.0000000000
     22152      7357  TIP3      H2             38.0353496015       16.0814542534        4.0750553365  SOLV      7346            0.0000000000
     22153      7358  TIP3      OH2            36.3413296015       16.6760542534       -0.1301346635  SOLV      7347            0.0000000000
     22154      7358  TIP3      H1             36.7803996015       17.2871042534       -0.7217846635  SOLV      7347            0.0000000000
     22155      7358  TIP3      H2             35.7075696015       17.2144642534        0.3438653365  SOLV      7347            0.0000000000
     22156      7359  TIP3      OH2            38.2022396015       18.5922042534       -1.6877246635  SOLV      7348            0.0000000000
     22157      7359  TIP3      H1             38.6935796015       17.9624442534       -2.2151746635  SOLV      7348            0.0000000000
     22158      7359  TIP3      H2             38.8258696015       18.8881442534       -1.0246046635  SOLV      7348            0.0000000000
     22159      7360  TIP3      OH2            37.4627896015       17.3924342534       13.5838753365  SOLV      7349            0.0000000000
     22160      7360  TIP3      H1             37.0966096015       16.6266942534       14.0263453365  SOLV      7349            0.0000000000
     22161      7360  TIP3      H2             38.3756396015       17.4214542534       13.8703853365  SOLV      7349            0.0000000000
     22162      7361  TIP3      OH2            39.4358696015       16.7428742534       15.1195853365  SOLV      7350            0.0000000000
     22163      7361  TIP3      H1             40.3342296015       16.4688942534       14.9349253365  SOLV      7350            0.0000000000
     22164      7361  TIP3      H2             39.0491796015       16.0004742534       15.5838453365  SOLV      7350            0.0000000000
     22165      7362  TIP3      OH2           -24.1439403985       35.2561342534       -0.0732846635  SOLV      7351            0.0000000000
     22166      7362  TIP3      H1            -25.0438703985       35.3950342534        0.2217753365  SOLV      7351            0.0000000000
     22167      7362  TIP3      H2            -23.8921003985       36.0875942534       -0.4751146635  SOLV      7351            0.0000000000
     22168      7363  TIP3      OH2           -22.1959203985       35.4520642534       15.7532353365  SOLV      7352            0.0000000000
     22169      7363  TIP3      H1            -21.8462203985       34.7984142534       15.1477053365  SOLV      7352            0.0000000000
     22170      7363  TIP3      H2            -22.0489703985       36.2894742534       15.3134953365  SOLV      7352            0.0000000000
     22171      7364  TIP3      OH2           -23.6756103985       35.6511542534       11.9214453365  SOLV      7353            0.0000000000
     22172      7364  TIP3      H1            -24.4882603985       35.9761842534       11.5339153365  SOLV      7353            0.0000000000
     22173      7364  TIP3      H2            -23.4427603985       34.8910042534       11.3883553365  SOLV      7353            0.0000000000
     22174      7365  TIP3      OH2           -25.1030403985       35.2076142534        6.3569753365  SOLV      7354            0.0000000000
     22175      7365  TIP3      H1            -24.4992803985       35.7551542534        5.8550753365  SOLV      7354            0.0000000000
     22176      7365  TIP3      H2            -25.9728403985       35.5266542534        6.1163853365  SOLV      7354            0.0000000000
     22177      7366  TIP3      OH2           -23.3760003985       36.3464842534        4.6900653365  SOLV      7355            0.0000000000
     22178      7366  TIP3      H1            -22.7642503985       35.8320542534        4.1634253365  SOLV      7355            0.0000000000
     22179      7366  TIP3      H2            -22.9936603985       37.2236942534        4.7135053365  SOLV      7355            0.0000000000
     22180      7367  TIP3      OH2           -13.5299903985       35.2969142534        6.9764553365  SOLV      7356            0.0000000000
     22181      7367  TIP3      H1            -13.6475703985       34.3485142534        6.9222853365  SOLV      7356            0.0000000000
     22182      7367  TIP3      H2            -14.3849803985       35.6295242534        7.2495653365  SOLV      7356            0.0000000000
     22183      7368  TIP3      OH2            -5.2879403985       35.2561342534       -0.0732846635  SOLV      7357            0.0000000000
     22184      7368  TIP3      H1             -6.1878703985       35.3950342534        0.2217753365  SOLV      7357            0.0000000000
     22185      7368  TIP3      H2             -5.0361003985       36.0875942534       -0.4751146635  SOLV      7357            0.0000000000
     22186      7369  TIP3      OH2           -16.2612303985       36.2003642534        7.7540853365  SOLV      7358            0.0000000000
     22187      7369  TIP3      H1            -17.1228603985       36.1131842534        7.3463753365  SOLV      7358            0.0000000000
     22188      7369  TIP3      H2            -16.2836603985       37.0563742534        8.1818453365  SOLV      7358            0.0000000000
     22189      7370  TIP3      OH2           -11.5984503985       35.9224042534       11.1287853365  SOLV      7359            0.0000000000
     22190      7370  TIP3      H1            -11.1781403985       35.5071142534       11.8818453365  SOLV      7359            0.0000000000
     22191      7370  TIP3      H2            -12.5314903985       35.7437342534       11.2459853365  SOLV      7359            0.0000000000
     22192      7371  TIP3      OH2           -18.6913703985       35.8507142534        6.7727153365  SOLV      7360            0.0000000000
     22193      7371  TIP3      H1            -18.9203903985       35.9099642534        5.8452153365  SOLV      7360            0.0000000000
     22194      7371  TIP3      H2            -19.1340303985       35.0592642534        7.0791253365  SOLV      7360            0.0000000000
     22195      7372  TIP3      OH2           -14.2285503985       35.6043342534       11.0181553365  SOLV      7361            0.0000000000
     22196      7372  TIP3      H1            -14.3265903985       36.5506542534       10.9127753365  SOLV      7361            0.0000000000
     22197      7372  TIP3      H2            -14.9709303985       35.2317142534       10.5425053365  SOLV      7361            0.0000000000
     22198      7373  TIP3      OH2           -14.0067403985       34.8980742534       13.6894353365  SOLV      7362            0.0000000000
     22199      7373  TIP3      H1            -13.2949003985       34.2582942534       13.6753453365  SOLV      7362            0.0000000000
     22200      7373  TIP3      H2            -14.1077003985       35.1649042534       12.7757453365  SOLV      7362            0.0000000000
     22201      7374  TIP3      OH2           -13.6529903985       36.5809142534       15.7430653365  SOLV      7363            0.0000000000
     22202      7374  TIP3      H1            -13.7847703985       36.1052942534       14.9229153365  SOLV      7363            0.0000000000
     22203      7374  TIP3      H2            -14.2522503985       37.3252742534       15.6877753365  SOLV      7363            0.0000000000
     22204      7375  TIP3      OH2            -3.3399203985       35.4520642534       15.7532353365  SOLV      7364            0.0000000000
     22205      7375  TIP3      H1             -2.9902203985       34.7984142534       15.1477053365  SOLV      7364            0.0000000000
     22206      7375  TIP3      H2             -3.1929703985       36.2894742534       15.3134953365  SOLV      7364            0.0000000000
     22207      7376  TIP3      OH2           -21.5393903985       36.2271842534       10.2354553365  SOLV      7365            0.0000000000
     22208      7376  TIP3      H1            -22.2043403985       35.9812142534       10.8785453365  SOLV      7365            0.0000000000
     22209      7376  TIP3      H2            -21.9822603985       36.8492242534        9.6582553365  SOLV      7365            0.0000000000
     22210      7377  TIP3      OH2            -4.8196103985       35.6511542534       11.9214453365  SOLV      7366            0.0000000000
     22211      7377  TIP3      H1             -5.6322603985       35.9761842534       11.5339153365  SOLV      7366            0.0000000000
     22212      7377  TIP3      H2             -4.5867603985       34.8910042534       11.3883553365  SOLV      7366            0.0000000000
     22213      7378  TIP3      OH2           -11.3897603985       37.1002142534        6.2442653365  SOLV      7367            0.0000000000
     22214      7378  TIP3      H1            -12.0640803985       36.4707742534        6.4998453365  SOLV      7367            0.0000000000
     22215      7378  TIP3      H2            -10.8258403985       36.6161042534        5.6410553365  SOLV      7367            0.0000000000
     22216      7379  TIP3      OH2            -6.2470403985       35.2076142534        6.3569753365  SOLV      7368            0.0000000000
     22217      7379  TIP3      H1             -5.6432803985       35.7551542534        5.8550753365  SOLV      7368            0.0000000000
     22218      7379  TIP3      H2             -7.1168403985       35.5266542534        6.1163853365  SOLV      7368            0.0000000000
     22219      7380  TIP3      OH2            -4.5200003985       36.3464842534        4.6900653365  SOLV      7369            0.0000000000
     22220      7380  TIP3      H1             -3.9082503985       35.8320542534        4.1634253365  SOLV      7369            0.0000000000
     22221      7380  TIP3      H2             -4.1376603985       37.2236942534        4.7135053365  SOLV      7369            0.0000000000
     22222      7381  TIP3      OH2           -19.0630103985       35.7342442534        4.0662553365  SOLV      7370            0.0000000000
     22223      7381  TIP3      H1            -19.8400303985       35.4997342534        3.5588453365  SOLV      7370            0.0000000000
     22224      7381  TIP3      H2            -18.5326503985       34.9374542534        4.0750553365  SOLV      7370            0.0000000000
     22225      7382  TIP3      OH2           -20.2266703985       35.5320542534       -0.1301346635  SOLV      7371            0.0000000000
     22226      7382  TIP3      H1            -19.7876003985       36.1431042534       -0.7217846635  SOLV      7371            0.0000000000
     22227      7382  TIP3      H2            -20.8604303985       36.0704642534        0.3438653365  SOLV      7371            0.0000000000
     22228      7383  TIP3      OH2           -14.4837503985       35.6609542534        3.8795653365  SOLV      7372            0.0000000000
     22229      7383  TIP3      H1            -13.6094103985       36.0493842534        3.8499953365  SOLV      7372            0.0000000000
     22230      7383  TIP3      H2            -14.6196703985       35.4457342534        4.8022853365  SOLV      7372            0.0000000000
     22231      7384  TIP3      OH2            -8.9269103985       35.6909342534        5.5287353365  SOLV      7373            0.0000000000
     22232      7384  TIP3      H1             -8.8507503985       35.7860942534        4.5793353365  SOLV      7373            0.0000000000
     22233      7384  TIP3      H2             -9.2019903985       34.7832242534        5.6576453365  SOLV      7373            0.0000000000
     22234      7385  TIP3      OH2            -7.5736503985       35.7167142534        1.2212353365  SOLV      7374            0.0000000000
     22235      7385  TIP3      H1             -8.2765403985       36.3316342534        1.0113753365  SOLV      7374            0.0000000000
     22236      7385  TIP3      H2             -8.0185103985       34.8793842534        1.3523253365  SOLV      7374            0.0000000000
     22237      7386  TIP3      OH2           -19.1052103985       36.2484342534       13.5838753365  SOLV      7375            0.0000000000
     22238      7386  TIP3      H1            -19.4713903985       35.4826942534       14.0263453365  SOLV      7375            0.0000000000
     22239      7386  TIP3      H2            -18.1923603985       36.2774542534       13.8703853365  SOLV      7375            0.0000000000
     22240      7387  TIP3      OH2           -17.1321303985       35.5988742534       15.1195853365  SOLV      7376            0.0000000000
     22241      7387  TIP3      H1            -16.2337703985       35.3248942534       14.9349253365  SOLV      7376            0.0000000000
     22242      7387  TIP3      H2            -17.5188203985       34.8564742534       15.5838453365  SOLV      7376            0.0000000000
     22243      7388  TIP3      OH2            -8.7109003985       34.9314042534       15.3018653365  SOLV      7377            0.0000000000
     22244      7388  TIP3      H1             -8.6341803985       34.5054742534       16.1556353365  SOLV      7377            0.0000000000
     22245      7388  TIP3      H2             -7.8172403985       34.9448742534       14.9592153365  SOLV      7377            0.0000000000
     22246      7389  TIP3      OH2             5.3260096015       35.2969142534        6.9764553365  SOLV      7378            0.0000000000
     22247      7389  TIP3      H1              5.2084296015       34.3485142534        6.9222853365  SOLV      7378            0.0000000000
     22248      7389  TIP3      H2              4.4710196015       35.6295242534        7.2495653365  SOLV      7378            0.0000000000
     22249      7390  TIP3      OH2            13.5680596015       35.2561342534       -0.0732846635  SOLV      7379            0.0000000000
     22250      7390  TIP3      H1             12.6681296015       35.3950342534        0.2217753365  SOLV      7379            0.0000000000
     22251      7390  TIP3      H2             13.8198996015       36.0875942534       -0.4751146635  SOLV      7379            0.0000000000
     22252      7391  TIP3      OH2             2.5947696015       36.2003642534        7.7540853365  SOLV      7380            0.0000000000
     22253      7391  TIP3      H1              1.7331396015       36.1131842534        7.3463753365  SOLV      7380            0.0000000000
     22254      7391  TIP3      H2              2.5723396015       37.0563742534        8.1818453365  SOLV      7380            0.0000000000
     22255      7392  TIP3      OH2             7.2575496015       35.9224042534       11.1287853365  SOLV      7381            0.0000000000
     22256      7392  TIP3      H1              7.6778596015       35.5071142534       11.8818453365  SOLV      7381            0.0000000000
     22257      7392  TIP3      H2              6.3245096015       35.7437342534       11.2459853365  SOLV      7381            0.0000000000
     22258      7393  TIP3      OH2             0.1646296015       35.8507142534        6.7727153365  SOLV      7382            0.0000000000
     22259      7393  TIP3      H1             -0.0643903985       35.9099642534        5.8452153365  SOLV      7382            0.0000000000
     22260      7393  TIP3      H2             -0.2780303985       35.0592642534        7.0791253365  SOLV      7382            0.0000000000
     22261      7394  TIP3      OH2             4.6274496015       35.6043342534       11.0181553365  SOLV      7383            0.0000000000
     22262      7394  TIP3      H1              4.5294096015       36.5506542534       10.9127753365  SOLV      7383            0.0000000000
     22263      7394  TIP3      H2              3.8850696015       35.2317142534       10.5425053365  SOLV      7383            0.0000000000
     22264      7395  TIP3      OH2             4.8492596015       34.8980742534       13.6894353365  SOLV      7384            0.0000000000
     22265      7395  TIP3      H1              5.5610996015       34.2582942534       13.6753453365  SOLV      7384            0.0000000000
     22266      7395  TIP3      H2              4.7482996015       35.1649042534       12.7757453365  SOLV      7384            0.0000000000
     22267      7396  TIP3      OH2             5.2030096015       36.5809142534       15.7430653365  SOLV      7385            0.0000000000
     22268      7396  TIP3      H1              5.0712296015       36.1052942534       14.9229153365  SOLV      7385            0.0000000000
     22269      7396  TIP3      H2              4.6037496015       37.3252742534       15.6877753365  SOLV      7385            0.0000000000
     22270      7397  TIP3      OH2            15.5160796015       35.4520642534       15.7532353365  SOLV      7386            0.0000000000
     22271      7397  TIP3      H1             15.8657796015       34.7984142534       15.1477053365  SOLV      7386            0.0000000000
     22272      7397  TIP3      H2             15.6630296015       36.2894742534       15.3134953365  SOLV      7386            0.0000000000
     22273      7398  TIP3      OH2            -2.6833903985       36.2271842534       10.2354553365  SOLV      7387            0.0000000000
     22274      7398  TIP3      H1             -3.3483403985       35.9812142534       10.8785453365  SOLV      7387            0.0000000000
     22275      7398  TIP3      H2             -3.1262603985       36.8492242534        9.6582553365  SOLV      7387            0.0000000000
     22276      7399  TIP3      OH2            14.0363896015       35.6511542534       11.9214453365  SOLV      7388            0.0000000000
     22277      7399  TIP3      H1             13.2237396015       35.9761842534       11.5339153365  SOLV      7388            0.0000000000
     22278      7399  TIP3      H2             14.2692396015       34.8910042534       11.3883553365  SOLV      7388            0.0000000000
     22279      7400  TIP3      OH2             7.4662396015       37.1002142534        6.2442653365  SOLV      7389            0.0000000000
     22280      7400  TIP3      H1              6.7919196015       36.4707742534        6.4998453365  SOLV      7389            0.0000000000
     22281      7400  TIP3      H2              8.0301596015       36.6161042534        5.6410553365  SOLV      7389            0.0000000000
     22282      7401  TIP3      OH2            12.6089596015       35.2076142534        6.3569753365  SOLV      7390            0.0000000000
     22283      7401  TIP3      H1             13.2127196015       35.7551542534        5.8550753365  SOLV      7390            0.0000000000
     22284      7401  TIP3      H2             11.7391596015       35.5266542534        6.1163853365  SOLV      7390            0.0000000000
     22285      7402  TIP3      OH2            14.3359996015       36.3464842534        4.6900653365  SOLV      7391            0.0000000000
     22286      7402  TIP3      H1             14.9477496015       35.8320542534        4.1634253365  SOLV      7391            0.0000000000
     22287      7402  TIP3      H2             14.7183396015       37.2236942534        4.7135053365  SOLV      7391            0.0000000000
     22288      7403  TIP3      OH2            -0.2070103985       35.7342442534        4.0662553365  SOLV      7392            0.0000000000
     22289      7403  TIP3      H1             -0.9840303985       35.4997342534        3.5588453365  SOLV      7392            0.0000000000
     22290      7403  TIP3      H2              0.3233496015       34.9374542534        4.0750553365  SOLV      7392            0.0000000000
     22291      7404  TIP3      OH2            -1.3706703985       35.5320542534       -0.1301346635  SOLV      7393            0.0000000000
     22292      7404  TIP3      H1             -0.9316003985       36.1431042534       -0.7217846635  SOLV      7393            0.0000000000
     22293      7404  TIP3      H2             -2.0044303985       36.0704642534        0.3438653365  SOLV      7393            0.0000000000
     22294      7405  TIP3      OH2             4.3722496015       35.6609542534        3.8795653365  SOLV      7394            0.0000000000
     22295      7405  TIP3      H1              5.2465896015       36.0493842534        3.8499953365  SOLV      7394            0.0000000000
     22296      7405  TIP3      H2              4.2363296015       35.4457342534        4.8022853365  SOLV      7394            0.0000000000
     22297      7406  TIP3      OH2             9.9290896015       35.6909342534        5.5287353365  SOLV      7395            0.0000000000
     22298      7406  TIP3      H1             10.0052496015       35.7860942534        4.5793353365  SOLV      7395            0.0000000000
     22299      7406  TIP3      H2              9.6540096015       34.7832242534        5.6576453365  SOLV      7395            0.0000000000
     22300      7407  TIP3      OH2            11.2823496015       35.7167142534        1.2212353365  SOLV      7396            0.0000000000
     22301      7407  TIP3      H1             10.5794596015       36.3316342534        1.0113753365  SOLV      7396            0.0000000000
     22302      7407  TIP3      H2             10.8374896015       34.8793842534        1.3523253365  SOLV      7396            0.0000000000
     22303      7408  TIP3      OH2            -0.2492103985       36.2484342534       13.5838753365  SOLV      7397            0.0000000000
     22304      7408  TIP3      H1             -0.6153903985       35.4826942534       14.0263453365  SOLV      7397            0.0000000000
     22305      7408  TIP3      H2              0.6636396015       36.2774542534       13.8703853365  SOLV      7397            0.0000000000
     22306      7409  TIP3      OH2             1.7238696015       35.5988742534       15.1195853365  SOLV      7398            0.0000000000
     22307      7409  TIP3      H1              2.6222296015       35.3248942534       14.9349253365  SOLV      7398            0.0000000000
     22308      7409  TIP3      H2              1.3371796015       34.8564742534       15.5838453365  SOLV      7398            0.0000000000
     22309      7410  TIP3      OH2            10.1450996015       34.9314042534       15.3018653365  SOLV      7399            0.0000000000
     22310      7410  TIP3      H1             10.2218196015       34.5054742534       16.1556353365  SOLV      7399            0.0000000000
     22311      7410  TIP3      H2             11.0387596015       34.9448742534       14.9592153365  SOLV      7399            0.0000000000
     22312      7411  TIP3      OH2            24.1820096015       35.2969142534        6.9764553365  SOLV      7400            0.0000000000
     22313      7411  TIP3      H1             24.0644296015       34.3485142534        6.9222853365  SOLV      7400            0.0000000000
     22314      7411  TIP3      H2             23.3270196015       35.6295242534        7.2495653365  SOLV      7400            0.0000000000
     22315      7412  TIP3      OH2            21.4507696015       36.2003642534        7.7540853365  SOLV      7401            0.0000000000
     22316      7412  TIP3      H1             20.5891396015       36.1131842534        7.3463753365  SOLV      7401            0.0000000000
     22317      7412  TIP3      H2             21.4283396015       37.0563742534        8.1818453365  SOLV      7401            0.0000000000
     22318      7413  TIP3      OH2            26.1135496015       35.9224042534       11.1287853365  SOLV      7402            0.0000000000
     22319      7413  TIP3      H1             26.5338596015       35.5071142534       11.8818453365  SOLV      7402            0.0000000000
     22320      7413  TIP3      H2             25.1805096015       35.7437342534       11.2459853365  SOLV      7402            0.0000000000
     22321      7414  TIP3      OH2            19.0206296015       35.8507142534        6.7727153365  SOLV      7403            0.0000000000
     22322      7414  TIP3      H1             18.7916096015       35.9099642534        5.8452153365  SOLV      7403            0.0000000000
     22323      7414  TIP3      H2             18.5779696015       35.0592642534        7.0791253365  SOLV      7403            0.0000000000
     22324      7415  TIP3      OH2            23.4834496015       35.6043342534       11.0181553365  SOLV      7404            0.0000000000
     22325      7415  TIP3      H1             23.3854096015       36.5506542534       10.9127753365  SOLV      7404            0.0000000000
     22326      7415  TIP3      H2             22.7410696015       35.2317142534       10.5425053365  SOLV      7404            0.0000000000
     22327      7416  TIP3      OH2            23.7052596015       34.8980742534       13.6894353365  SOLV      7405            0.0000000000
     22328      7416  TIP3      H1             24.4170996015       34.2582942534       13.6753453365  SOLV      7405            0.0000000000
     22329      7416  TIP3      H2             23.6042996015       35.1649042534       12.7757453365  SOLV      7405            0.0000000000
     22330      7417  TIP3      OH2            24.0590096015       36.5809142534       15.7430653365  SOLV      7406            0.0000000000
     22331      7417  TIP3      H1             23.9272296015       36.1052942534       14.9229153365  SOLV      7406            0.0000000000
     22332      7417  TIP3      H2             23.4597496015       37.3252742534       15.6877753365  SOLV      7406            0.0000000000
     22333      7418  TIP3      OH2            16.1726096015       36.2271842534       10.2354553365  SOLV      7407            0.0000000000
     22334      7418  TIP3      H1             15.5076596015       35.9812142534       10.8785453365  SOLV      7407            0.0000000000
     22335      7418  TIP3      H2             15.7297396015       36.8492242534        9.6582553365  SOLV      7407            0.0000000000
     22336      7419  TIP3      OH2            26.3222396015       37.1002142534        6.2442653365  SOLV      7408            0.0000000000
     22337      7419  TIP3      H1             25.6479196015       36.4707742534        6.4998453365  SOLV      7408            0.0000000000
     22338      7419  TIP3      H2             26.8861596015       36.6161042534        5.6410553365  SOLV      7408            0.0000000000
     22339      7420  TIP3      OH2            18.6489896015       35.7342442534        4.0662553365  SOLV      7409            0.0000000000
     22340      7420  TIP3      H1             17.8719696015       35.4997342534        3.5588453365  SOLV      7409            0.0000000000
     22341      7420  TIP3      H2             19.1793496015       34.9374542534        4.0750553365  SOLV      7409            0.0000000000
     22342      7421  TIP3      OH2            17.4853296015       35.5320542534       -0.1301346635  SOLV      7410            0.0000000000
     22343      7421  TIP3      H1             17.9243996015       36.1431042534       -0.7217846635  SOLV      7410            0.0000000000
     22344      7421  TIP3      H2             16.8515696015       36.0704642534        0.3438653365  SOLV      7410            0.0000000000
     22345      7422  TIP3      OH2            23.2282496015       35.6609542534        3.8795653365  SOLV      7411            0.0000000000
     22346      7422  TIP3      H1             24.1025896015       36.0493842534        3.8499953365  SOLV      7411            0.0000000000
     22347      7422  TIP3      H2             23.0923296015       35.4457342534        4.8022853365  SOLV      7411            0.0000000000
     22348      7423  TIP3      OH2            18.6067896015       36.2484342534       13.5838753365  SOLV      7412            0.0000000000
     22349      7423  TIP3      H1             18.2406096015       35.4826942534       14.0263453365  SOLV      7412            0.0000000000
     22350      7423  TIP3      H2             19.5196396015       36.2774542534       13.8703853365  SOLV      7412            0.0000000000
     22351      7424  TIP3      OH2            20.5798696015       35.5988742534       15.1195853365  SOLV      7413            0.0000000000
     22352      7424  TIP3      H1             21.4782296015       35.3248942534       14.9349253365  SOLV      7413            0.0000000000
     22353      7424  TIP3      H2             20.1931796015       34.8564742534       15.5838453365  SOLV      7413            0.0000000000
     22354      7425  TIP3      OH2           -22.9548003985      -25.8016257466       17.1591053365  SOLV      7414            0.0000000000
     22355      7425  TIP3      H1            -22.8814503985      -24.8626057466       17.3296353365  SOLV      7414            0.0000000000
     22356      7425  TIP3      H2            -22.0492903985      -26.1067657466       17.1028353365  SOLV      7414            0.0000000000
     22357      7426  TIP3      OH2           -27.5423803985      -23.0705657466       17.8222153365  SOLV      7415            0.0000000000
     22358      7426  TIP3      H1            -27.1675403985      -23.8149557466       17.3514753365  SOLV      7415            0.0000000000
     22359      7426  TIP3      H2            -27.5380103985      -23.3405057466       18.7405453365  SOLV      7415            0.0000000000
     22360      7427  TIP3      OH2           -26.3654703985      -30.8850757466       16.5995353365  SOLV      7416            0.0000000000
     22361      7427  TIP3      H1            -26.3233903985      -31.1076857466       15.6695353365  SOLV      7416            0.0000000000
     22362      7427  TIP3      H2            -25.5162603985      -30.4863657466       16.7895253365  SOLV      7416            0.0000000000
     22363      7428  TIP3      OH2           -24.1608903985      -25.5440357466       19.7090353365  SOLV      7417            0.0000000000
     22364      7428  TIP3      H1            -24.5337803985      -26.3696557466       20.0180953365  SOLV      7417            0.0000000000
     22365      7428  TIP3      H2            -23.8835403985      -25.7270957466       18.8113753365  SOLV      7417            0.0000000000
     22366      7429  TIP3      OH2           -26.7683303985      -27.5674557466       17.5290953365  SOLV      7418            0.0000000000
     22367      7429  TIP3      H1            -26.4150203985      -27.9474757466       18.3334453365  SOLV      7418            0.0000000000
     22368      7429  TIP3      H2            -27.7169803985      -27.6609757466       17.6160253365  SOLV      7418            0.0000000000
     22369      7430  TIP3      OH2           -22.2648903985      -23.0882057466       17.7301153365  SOLV      7419            0.0000000000
     22370      7430  TIP3      H1            -21.5211003985      -22.5021557466       17.5902753365  SOLV      7419            0.0000000000
     22371      7430  TIP3      H2            -22.9590803985      -22.5196257466       18.0633553365  SOLV      7419            0.0000000000
     22372      7431  TIP3      OH2           -30.6393703985      -24.5927057466       16.1146953365  SOLV      7420            0.0000000000
     22373      7431  TIP3      H1            -31.2832703985      -25.2238457466       16.4360653365  SOLV      7420            0.0000000000
     22374      7431  TIP3      H2            -29.8775403985      -25.1239057466       15.8830453365  SOLV      7420            0.0000000000
     22375      7432  TIP3      OH2           -26.0350803985      -24.7757157466       16.3484953365  SOLV      7421            0.0000000000
     22376      7432  TIP3      H1            -25.7520403985      -25.5701957466       16.8011853365  SOLV      7421            0.0000000000
     22377      7432  TIP3      H2            -25.2952903985      -24.5426157466       15.7876053365  SOLV      7421            0.0000000000
     22378      7433  TIP3      OH2           -29.7280103985      -27.8190557466       15.9417853365  SOLV      7422            0.0000000000
     22379      7433  TIP3      H1            -29.9966003985      -27.6388457466       16.8426753365  SOLV      7422            0.0000000000
     22380      7433  TIP3      H2            -29.9344503985      -28.7444357466       15.8103653365  SOLV      7422            0.0000000000
     22381      7434  TIP3      OH2           -23.4701003985      -30.2960057466       16.2199153365  SOLV      7423            0.0000000000
     22382      7434  TIP3      H1            -23.7436203985      -30.7204557466       15.4067453365  SOLV      7423            0.0000000000
     22383      7434  TIP3      H2            -23.4306903985      -29.3645557466       16.0029553365  SOLV      7423            0.0000000000
     22384      7435  TIP3      OH2           -32.9627603985      -21.9600557466       17.7754653365  SOLV      7424            0.0000000000
     22385      7435  TIP3      H1            -32.0296903985      -21.8021857466       17.9193053365  SOLV      7424            0.0000000000
     22386      7435  TIP3      H2            -33.2268803985      -21.2847557466       17.1506153365  SOLV      7424            0.0000000000
     22387      7436  TIP3      OH2           -22.3489503985      -31.4726057466       18.4096553365  SOLV      7425            0.0000000000
     22388      7436  TIP3      H1            -22.8708403985      -31.1161957466       17.6907453365  SOLV      7425            0.0000000000
     22389      7436  TIP3      H2            -22.3820303985      -30.7978257466       19.0877453365  SOLV      7425            0.0000000000
     22390      7437  TIP3      OH2           -24.0000503985      -34.2330457466       16.9603653365  SOLV      7426            0.0000000000
     22391      7437  TIP3      H1            -23.9036103985      -33.5663457466       16.2803353365  SOLV      7426            0.0000000000
     22392      7437  TIP3      H2            -24.1400903985      -35.0484157466       16.4789153365  SOLV      7426            0.0000000000
     22393      7438  TIP3      OH2           -30.3173703985      -22.7342357466       18.0209953365  SOLV      7427            0.0000000000
     22394      7438  TIP3      H1            -29.4513503985      -22.3674957466       17.8428153365  SOLV      7427            0.0000000000
     22395      7438  TIP3      H2            -30.5640903985      -23.1734357466       17.2070753365  SOLV      7427            0.0000000000
     22396      7439  TIP3      OH2           -23.6084103985      -23.1712057466       20.7001053365  SOLV      7428            0.0000000000
     22397      7439  TIP3      H1            -23.8027003985      -23.9189957466       20.1350653365  SOLV      7428            0.0000000000
     22398      7439  TIP3      H2            -23.6474003985      -22.4131957466       20.1168953365  SOLV      7428            0.0000000000
     22399      7440  TIP3      OH2            -9.9847503985      -30.5335257466       22.8810053365  SOLV      7429            0.0000000000
     22400      7440  TIP3      H1             -9.8956403985      -29.5897057466       22.7487153365  SOLV      7429            0.0000000000
     22401      7440  TIP3      H2            -10.6229903985      -30.8088857466       22.2229453365  SOLV      7429            0.0000000000
     22402      7441  TIP3      OH2            -7.3456003985      -28.3394157466       24.6013353365  SOLV      7430            0.0000000000
     22403      7441  TIP3      H1             -7.7863303985      -29.0598157466       25.0518953365  SOLV      7430            0.0000000000
     22404      7441  TIP3      H2             -7.3586303985      -27.6186957466       25.2311053365  SOLV      7430            0.0000000000
     22405      7442  TIP3      OH2           -10.2340503985      -23.2352457466       24.8133753365  SOLV      7431            0.0000000000
     22406      7442  TIP3      H1             -9.6144103985      -23.9117757466       24.5402953365  SOLV      7431            0.0000000000
     22407      7442  TIP3      H2            -10.4423103985      -23.4531657466       25.7218653365  SOLV      7431            0.0000000000
     22408      7443  TIP3      OH2            -3.9992003985      -37.2447857466       27.5665453365  SOLV      7432            0.0000000000
     22409      7443  TIP3      H1             -3.9499803985      -36.6346657466       28.3024553365  SOLV      7432            0.0000000000
     22410      7443  TIP3      H2             -3.5736903985      -36.7836957466       26.8436553365  SOLV      7432            0.0000000000
     22411      7444  TIP3      OH2            -8.6443803985      -36.2198757466       22.7067153365  SOLV      7433            0.0000000000
     22412      7444  TIP3      H1             -7.9979503985      -36.5485557466       23.3314753365  SOLV      7433            0.0000000000
     22413      7444  TIP3      H2             -8.1344403985      -35.7019757466       22.0838553365  SOLV      7433            0.0000000000
     22414      7445  TIP3      OH2           -10.1874803985      -27.9324857466       21.9238753365  SOLV      7434            0.0000000000
     22415      7445  TIP3      H1            -10.4829703985      -28.2552557466       21.0725653365  SOLV      7434            0.0000000000
     22416      7445  TIP3      H2            -10.5117003985      -27.0328157466       21.9651353365  SOLV      7434            0.0000000000
     22417      7446  TIP3      OH2           -20.4588003985      -28.1219357466       20.2364153365  SOLV      7435            0.0000000000
     22418      7446  TIP3      H1            -20.7307103985      -27.8928357466       19.3477053365  SOLV      7435            0.0000000000
     22419      7446  TIP3      H2            -20.4132303985      -27.2840557466       20.6969453365  SOLV      7435            0.0000000000
     22420      7447  TIP3      OH2            -6.8338303985      -26.5003457466       26.9492653365  SOLV      7436            0.0000000000
     22421      7447  TIP3      H1             -7.7754603985      -26.4419557466       27.1109553365  SOLV      7436            0.0000000000
     22422      7447  TIP3      H2             -6.5572203985      -25.5942957466       26.8122353365  SOLV      7436            0.0000000000
     22423      7448  TIP3      OH2            -8.5817103985      -24.7189957466       23.5744253365  SOLV      7437            0.0000000000
     22424      7448  TIP3      H1             -8.1564803985      -25.4262057466       23.0893853365  SOLV      7437            0.0000000000
     22425      7448  TIP3      H2             -8.2647103985      -23.9177257466       23.1576453365  SOLV      7437            0.0000000000
     22426      7449  TIP3      OH2            -7.4220603985      -26.8181457466       22.0830853365  SOLV      7438            0.0000000000
     22427      7449  TIP3      H1             -7.6795803985      -27.5081357466       21.4716753365  SOLV      7438            0.0000000000
     22428      7449  TIP3      H2             -7.3509803985      -27.2610257466       22.9286753365  SOLV      7438            0.0000000000
     22429      7450  TIP3      OH2            -5.7360403985      -28.2514757466       30.5604353365  SOLV      7439            0.0000000000
     22430      7450  TIP3      H1             -5.5964103985      -28.8432257466       29.8211353365  SOLV      7439            0.0000000000
     22431      7450  TIP3      H2             -5.5687603985      -27.3788857466       30.2043153365  SOLV      7439            0.0000000000
     22432      7451  TIP3      OH2           -11.2635003985      -31.2895257466       20.3330353365  SOLV      7440            0.0000000000
     22433      7451  TIP3      H1            -11.9749503985      -30.7545557466       19.9810853365  SOLV      7440            0.0000000000
     22434      7451  TIP3      H2            -10.5725403985      -31.2343157466       19.6729253365  SOLV      7440            0.0000000000
     22435      7452  TIP3      OH2           -11.2095803985      -32.8320957466       17.3715353365  SOLV      7441            0.0000000000
     22436      7452  TIP3      H1            -10.5085903985      -32.8094057466       18.0229353365  SOLV      7441            0.0000000000
     22437      7452  TIP3      H2            -10.9072903985      -33.4601257466       16.7154653365  SOLV      7441            0.0000000000
     22438      7453  TIP3      OH2            -3.8941103985      -31.9116757466       28.6264753365  SOLV      7442            0.0000000000
     22439      7453  TIP3      H1             -4.5467003985      -31.2171157466       28.7155653365  SOLV      7442            0.0000000000
     22440      7453  TIP3      H2             -3.4290803985      -31.7015857466       27.8166353365  SOLV      7442            0.0000000000
     22441      7454  TIP3      OH2            -7.8577303985      -31.0801957466       21.2846253365  SOLV      7443            0.0000000000
     22442      7454  TIP3      H1             -8.5896303985      -30.8518257466       21.8576853365  SOLV      7443            0.0000000000
     22443      7454  TIP3      H2             -7.4105103985      -31.7939257466       21.7393753365  SOLV      7443            0.0000000000
     22444      7455  TIP3      OH2           -16.2123603985      -30.4495757466       23.1671253365  SOLV      7444            0.0000000000
     22445      7455  TIP3      H1            -16.5428403985      -30.8202357466       22.3488253365  SOLV      7444            0.0000000000
     22446      7455  TIP3      H2            -15.6239503985      -31.1201757466       23.5139553365  SOLV      7444            0.0000000000
     22447      7456  TIP3      OH2           -14.8456103985      -27.0215157466       25.8483453365  SOLV      7445            0.0000000000
     22448      7456  TIP3      H1            -14.9404803985      -27.6002057466       25.0918053365  SOLV      7445            0.0000000000
     22449      7456  TIP3      H2            -14.1162503985      -27.3929457466       26.3446253365  SOLV      7445            0.0000000000
     22450      7457  TIP3      OH2            -9.5365903985      -26.1778257466       27.5346753365  SOLV      7446            0.0000000000
     22451      7457  TIP3      H1             -9.7769303985      -25.5155157466       28.1825953365  SOLV      7446            0.0000000000
     22452      7457  TIP3      H2             -9.7347703985      -27.0123057466       27.9596353365  SOLV      7446            0.0000000000
     22453      7458  TIP3      OH2            -8.9867803985      -31.9179057466       18.9697453365  SOLV      7447            0.0000000000
     22454      7458  TIP3      H1             -8.4072303985      -31.7678757466       19.7166353365  SOLV      7447            0.0000000000
     22455      7458  TIP3      H2             -8.5727803985      -31.4471657466       18.2463853365  SOLV      7447            0.0000000000
     22456      7459  TIP3      OH2           -11.2602903985      -25.1810557466       22.4050553365  SOLV      7448            0.0000000000
     22457      7459  TIP3      H1            -10.7865303985      -24.8854257466       23.1824753365  SOLV      7448            0.0000000000
     22458      7459  TIP3      H2            -11.8233603985      -24.4428957466       22.1720153365  SOLV      7448            0.0000000000
     22459      7460  TIP3      OH2           -17.2220903985      -31.3801457466       20.7564053365  SOLV      7449            0.0000000000
     22460      7460  TIP3      H1            -17.5139603985      -30.6119757466       20.2655353365  SOLV      7449            0.0000000000
     22461      7460  TIP3      H2            -17.8965703985      -32.0395257466       20.5935453365  SOLV      7449            0.0000000000
     22462      7461  TIP3      OH2            -4.0988003985      -25.8016257466       17.1591053365  SOLV      7450            0.0000000000
     22463      7461  TIP3      H1             -4.0254503985      -24.8626057466       17.3296353365  SOLV      7450            0.0000000000
     22464      7461  TIP3      H2             -3.1932903985      -26.1067657466       17.1028353365  SOLV      7450            0.0000000000
     22465      7462  TIP3      OH2            -3.1809603985      -25.5708757466       32.1377753365  SOLV      7451            0.0000000000
     22466      7462  TIP3      H1             -3.2302803985      -26.5260657466       32.1005353365  SOLV      7451            0.0000000000
     22467      7462  TIP3      H2             -4.0077303985      -25.3033457466       32.5391553365  SOLV      7451            0.0000000000
     22468      7463  TIP3      OH2           -11.7879803985      -22.2245857466       20.8199753365  SOLV      7452            0.0000000000
     22469      7463  TIP3      H1            -11.8633803985      -22.3458657466       19.8734953365  SOLV      7452            0.0000000000
     22470      7463  TIP3      H2            -11.7551103985      -21.2753157466       20.9384353365  SOLV      7452            0.0000000000
     22471      7464  TIP3      OH2           -18.1346003985      -23.4358857466       22.6008753365  SOLV      7453            0.0000000000
     22472      7464  TIP3      H1            -17.9825603985      -23.7838457466       23.4795253365  SOLV      7453            0.0000000000
     22473      7464  TIP3      H2            -18.9855603985      -23.7921557466       22.3455953365  SOLV      7453            0.0000000000
     22474      7465  TIP3      OH2            -8.6863803985      -23.0705657466       17.8222153365  SOLV      7454            0.0000000000
     22475      7465  TIP3      H1             -8.3115403985      -23.8149557466       17.3514753365  SOLV      7454            0.0000000000
     22476      7465  TIP3      H2             -8.6820103985      -23.3405057466       18.7405453365  SOLV      7454            0.0000000000
     22477      7466  TIP3      OH2            -9.0175703985      -23.1448557466       20.5714353365  SOLV      7455            0.0000000000
     22478      7466  TIP3      H1             -9.9525903985      -23.0446657466       20.7501353365  SOLV      7455            0.0000000000
     22479      7466  TIP3      H2             -8.7373803985      -23.8542557466       21.1497553365  SOLV      7455            0.0000000000
     22480      7467  TIP3      OH2            -7.5094703985      -30.8850757466       16.5995353365  SOLV      7456            0.0000000000
     22481      7467  TIP3      H1             -7.4673903985      -31.1076857466       15.6695353365  SOLV      7456            0.0000000000
     22482      7467  TIP3      H2             -6.6602603985      -30.4863657466       16.7895253365  SOLV      7456            0.0000000000
     22483      7468  TIP3      OH2           -10.6377603985      -33.6211457466       21.4341853365  SOLV      7457            0.0000000000
     22484      7468  TIP3      H1            -11.0467303985      -32.8062857466       21.1426653365  SOLV      7457            0.0000000000
     22485      7468  TIP3      H2             -9.9171403985      -33.7611357466       20.8198953365  SOLV      7457            0.0000000000
     22486      7469  TIP3      OH2            -9.6329903985      -34.1751057466       24.2481553365  SOLV      7458            0.0000000000
     22487      7469  TIP3      H1             -9.8285403985      -33.5694257466       23.5332153365  SOLV      7458            0.0000000000
     22488      7469  TIP3      H2             -9.4517303985      -35.0085857466       23.8137853365  SOLV      7458            0.0000000000
     22489      7470  TIP3      OH2           -15.0544303985      -36.5636057466       16.3709053365  SOLV      7459            0.0000000000
     22490      7470  TIP3      H1            -15.4853603985      -37.0085957466       17.1006453365  SOLV      7459            0.0000000000
     22491      7470  TIP3      H2            -15.7725603985      -36.1919757466       15.8586553365  SOLV      7459            0.0000000000
     22492      7471  TIP3      OH2           -20.5378803985      -36.0754557466       18.8468153365  SOLV      7460            0.0000000000
     22493      7471  TIP3      H1            -20.0637103985      -35.4844657466       18.2619053365  SOLV      7460            0.0000000000
     22494      7471  TIP3      H2            -21.2552403985      -35.5451657466       19.1938253365  SOLV      7460            0.0000000000
     22495      7472  TIP3      OH2           -15.1102603985      -34.9805357466       20.1867353365  SOLV      7461            0.0000000000
     22496      7472  TIP3      H1            -14.1787103985      -34.8515357466       20.3650453365  SOLV      7461            0.0000000000
     22497      7472  TIP3      H2            -15.3252303985      -34.3111057466       19.5372053365  SOLV      7461            0.0000000000
     22498      7473  TIP3      OH2           -16.4362403985      -33.7863157466       17.7533453365  SOLV      7462            0.0000000000
     22499      7473  TIP3      H1            -16.9787303985      -34.1659357466       17.0621053365  SOLV      7462            0.0000000000
     22500      7473  TIP3      H2            -15.6027503985      -33.5918457466       17.3247553365  SOLV      7462            0.0000000000
     22501      7474  TIP3      OH2            -5.8990803985      -21.7032557466       33.2444553365  SOLV      7463            0.0000000000
     22502      7474  TIP3      H1             -5.6992103985      -21.2790657466       32.4099853365  SOLV      7463            0.0000000000
     22503      7474  TIP3      H2             -5.2437103985      -21.3594357466       33.8514953365  SOLV      7463            0.0000000000
     22504      7475  TIP3      OH2           -13.1009603985      -29.2207457466       19.6891553365  SOLV      7464            0.0000000000
     22505      7475  TIP3      H1            -13.8458603985      -29.7282157466       19.3669453365  SOLV      7464            0.0000000000
     22506      7475  TIP3      H2            -13.2352403985      -29.1719457466       20.6356353365  SOLV      7464            0.0000000000
     22507      7476  TIP3      OH2            -5.9510703985      -30.0879257466       28.4759153365  SOLV      7465            0.0000000000
     22508      7476  TIP3      H1             -5.3091903985      -29.6312957466       27.9321353365  SOLV      7465            0.0000000000
     22509      7476  TIP3      H2             -6.7813803985      -29.9746857466       28.0133253365  SOLV      7465            0.0000000000
     22510      7477  TIP3      OH2            -9.2032803985      -36.4067557466       17.8884153365  SOLV      7466            0.0000000000
     22511      7477  TIP3      H1            -10.1418603985      -36.2951957466       17.7372953365  SOLV      7466            0.0000000000
     22512      7477  TIP3      H2             -8.9060703985      -35.5500657466       18.1949853365  SOLV      7466            0.0000000000
     22513      7478  TIP3      OH2            -8.4849303985      -34.5394857466       19.5491553365  SOLV      7467            0.0000000000
     22514      7478  TIP3      H1             -7.5930303985      -34.6769857466       19.8682753365  SOLV      7467            0.0000000000
     22515      7478  TIP3      H2             -8.4285703985      -33.7488757466       19.0125053365  SOLV      7467            0.0000000000
     22516      7479  TIP3      OH2           -10.9755503985      -27.7623157466       18.7146153365  SOLV      7468            0.0000000000
     22517      7479  TIP3      H1            -11.2707103985      -26.9355257466       19.0960953365  SOLV      7468            0.0000000000
     22518      7479  TIP3      H2            -11.6785503985      -28.3816257466       18.9107553365  SOLV      7468            0.0000000000
     22519      7480  TIP3      OH2            -3.6000603985      -34.3300757466       19.2438253365  SOLV      7469            0.0000000000
     22520      7480  TIP3      H1             -4.1544303985      -34.7262757466       18.5715753365  SOLV      7469            0.0000000000
     22521      7480  TIP3      H2             -3.4997003985      -33.4195557466       18.9661553365  SOLV      7469            0.0000000000
     22522      7481  TIP3      OH2            -5.3048903985      -25.5440357466       19.7090353365  SOLV      7470            0.0000000000
     22523      7481  TIP3      H1             -5.6777803985      -26.3696557466       20.0180953365  SOLV      7470            0.0000000000
     22524      7481  TIP3      H2             -5.0275403985      -25.7270957466       18.8113753365  SOLV      7470            0.0000000000
     22525      7482  TIP3      OH2            -8.1445003985      -30.7360857466       26.7302253365  SOLV      7471            0.0000000000
     22526      7482  TIP3      H1             -9.0728103985      -30.9678957466       26.7031553365  SOLV      7471            0.0000000000
     22527      7482  TIP3      H2             -7.6933903985      -31.5131057466       26.4001053365  SOLV      7471            0.0000000000
     22528      7483  TIP3      OH2           -15.6011903985      -26.4079257466       22.8630953365  SOLV      7472            0.0000000000
     22529      7483  TIP3      H1            -15.0739703985      -25.6344857466       22.6629753365  SOLV      7472            0.0000000000
     22530      7483  TIP3      H2            -16.4813403985      -26.1830057466       22.5614953365  SOLV      7472            0.0000000000
     22531      7484  TIP3      OH2           -19.8464203985      -31.5455157466       17.4503353365  SOLV      7473            0.0000000000
     22532      7484  TIP3      H1            -19.2304303985      -30.9187957466       17.8298153365  SOLV      7473            0.0000000000
     22533      7484  TIP3      H2            -20.7081603985      -31.2295357466       17.7219853365  SOLV      7473            0.0000000000
     22534      7485  TIP3      OH2           -14.1739603985      -28.7449357466       22.4395253365  SOLV      7474            0.0000000000
     22535      7485  TIP3      H1            -14.4149603985      -27.8194957466       22.4810553365  SOLV      7474            0.0000000000
     22536      7485  TIP3      H2            -14.9146003985      -29.2038057466       22.8359153365  SOLV      7474            0.0000000000
     22537      7486  TIP3      OH2           -15.4908803985      -23.7231757466       21.9847453365  SOLV      7475            0.0000000000
     22538      7486  TIP3      H1            -16.4408303985      -23.6174357466       22.0360753365  SOLV      7475            0.0000000000
     22539      7486  TIP3      H2            -15.1390703985      -22.9024357466       22.3294953365  SOLV      7475            0.0000000000
     22540      7487  TIP3      OH2            -7.9123303985      -27.5674557466       17.5290953365  SOLV      7476            0.0000000000
     22541      7487  TIP3      H1             -7.5590203985      -27.9474757466       18.3334453365  SOLV      7476            0.0000000000
     22542      7487  TIP3      H2             -8.8609803985      -27.6609757466       17.6160253365  SOLV      7476            0.0000000000
     22543      7488  TIP3      OH2            -7.4568003985      -23.9445557466       30.9246753365  SOLV      7477            0.0000000000
     22544      7488  TIP3      H1             -8.0584803985      -24.5002657466       30.4293053365  SOLV      7477            0.0000000000
     22545      7488  TIP3      H2             -7.1754303985      -23.2775757466       30.2984153365  SOLV      7477            0.0000000000
     22546      7489  TIP3      OH2            -3.4088903985      -23.0882057466       17.7301153365  SOLV      7478            0.0000000000
     22547      7489  TIP3      H1             -2.6651003985      -22.5021557466       17.5902753365  SOLV      7478            0.0000000000
     22548      7489  TIP3      H2             -4.1030803985      -22.5196257466       18.0633553365  SOLV      7478            0.0000000000
     22549      7490  TIP3      OH2            -7.0464003985      -28.8952557466       19.7558853365  SOLV      7479            0.0000000000
     22550      7490  TIP3      H1             -7.3236403985      -29.6233257466       20.3119953365  SOLV      7479            0.0000000000
     22551      7490  TIP3      H2             -6.1191003985      -28.7760557466       19.9611453365  SOLV      7479            0.0000000000
     22552      7491  TIP3      OH2           -13.8215503985      -26.4558457466       15.9760953365  SOLV      7480            0.0000000000
     22553      7491  TIP3      H1            -13.5825703985      -27.2040357466       15.4289853365  SOLV      7480            0.0000000000
     22554      7491  TIP3      H2            -14.0904203985      -26.8436757466       16.8088753365  SOLV      7480            0.0000000000
     22555      7492  TIP3      OH2           -14.8844903985      -26.8854657466       18.4323553365  SOLV      7481            0.0000000000
     22556      7492  TIP3      H1            -14.7376903985      -27.4054857466       19.2224453365  SOLV      7481            0.0000000000
     22557      7492  TIP3      H2            -14.8873203985      -25.9787057466       18.7389453365  SOLV      7481            0.0000000000
     22558      7493  TIP3      OH2           -18.4313803985      -29.6331357466       18.9428953365  SOLV      7482            0.0000000000
     22559      7493  TIP3      H1            -19.1174503985      -29.2808857466       19.5098653365  SOLV      7482            0.0000000000
     22560      7493  TIP3      H2            -17.9085903985      -28.8701757466       18.6963253365  SOLV      7482            0.0000000000
     22561      7494  TIP3      OH2           -12.1467703985      -25.1881057466       19.1817753365  SOLV      7483            0.0000000000
     22562      7494  TIP3      H1            -12.9631603985      -24.6911357466       19.2342053365  SOLV      7483            0.0000000000
     22563      7494  TIP3      H2            -11.6171403985      -24.7127557466       18.5416553365  SOLV      7483            0.0000000000
     22564      7495  TIP3      OH2           -12.6153903985      -35.5907057466       21.1538653365  SOLV      7484            0.0000000000
     22565      7495  TIP3      H1            -11.8031303985      -35.0863857466       21.2000353365  SOLV      7484            0.0000000000
     22566      7495  TIP3      H2            -12.8600903985      -35.7357357466       22.0678253365  SOLV      7484            0.0000000000
     22567      7496  TIP3      OH2           -14.8084603985      -24.1443857466       19.1634653365  SOLV      7485            0.0000000000
     22568      7496  TIP3      H1            -14.6475903985      -23.3446357466       18.6627253365  SOLV      7485            0.0000000000
     22569      7496  TIP3      H2            -15.0056803985      -23.8377857466       20.0485253365  SOLV      7485            0.0000000000
     22570      7497  TIP3      OH2            -7.2730703985      -32.9473057466       25.2692253365  SOLV      7486            0.0000000000
     22571      7497  TIP3      H1             -8.0706303985      -33.3622857466       24.9407253365  SOLV      7486            0.0000000000
     22572      7497  TIP3      H2             -6.8279603985      -33.6379357466       25.7602753365  SOLV      7486            0.0000000000
     22573      7498  TIP3      OH2           -17.8154903985      -27.0192457466       17.8396753365  SOLV      7487            0.0000000000
     22574      7498  TIP3      H1            -17.2233403985      -26.3197657466       18.1159153365  SOLV      7487            0.0000000000
     22575      7498  TIP3      H2            -17.3561903985      -27.4522957466       17.1201353365  SOLV      7487            0.0000000000
     22576      7499  TIP3      OH2           -19.4995703985      -34.3549457466       16.9556153365  SOLV      7488            0.0000000000
     22577      7499  TIP3      H1            -19.5443103985      -33.4156357466       17.1343153365  SOLV      7488            0.0000000000
     22578      7499  TIP3      H2            -20.3872503985      -34.5904557466       16.6858253365  SOLV      7488            0.0000000000
     22579      7500  TIP3      OH2            -6.1866103985      -23.6910557466       26.8915753365  SOLV      7489            0.0000000000
     22580      7500  TIP3      H1             -6.3421803985      -23.0126157466       26.2345053365  SOLV      7489            0.0000000000
     22581      7500  TIP3      H2             -5.2539703985      -23.6191257466       27.0946353365  SOLV      7489            0.0000000000
     22582      7501  TIP3      OH2           -19.7610403985      -25.6325757466       21.7892953365  SOLV      7490            0.0000000000
     22583      7501  TIP3      H1            -20.5931803985      -25.1603057466       21.8164353365  SOLV      7490            0.0000000000
     22584      7501  TIP3      H2            -19.2152103985      -25.1228157466       21.1906053365  SOLV      7490            0.0000000000
     22585      7502  TIP3      OH2           -11.7833703985      -24.5927057466       16.1146953365  SOLV      7491            0.0000000000
     22586      7502  TIP3      H1            -12.4272703985      -25.2238457466       16.4360653365  SOLV      7491            0.0000000000
     22587      7502  TIP3      H2            -11.0215403985      -25.1239057466       15.8830453365  SOLV      7491            0.0000000000
     22588      7503  TIP3      OH2            -7.1790803985      -24.7757157466       16.3484953365  SOLV      7492            0.0000000000
     22589      7503  TIP3      H1             -6.8960403985      -25.5701957466       16.8011853365  SOLV      7492            0.0000000000
     22590      7503  TIP3      H2             -6.4392903985      -24.5426157466       15.7876053365  SOLV      7492            0.0000000000
     22591      7504  TIP3      OH2           -16.2243503985      -28.8662257466       16.2059853365  SOLV      7493            0.0000000000
     22592      7504  TIP3      H1            -16.1599403985      -29.6602657466       16.7366253365  SOLV      7493            0.0000000000
     22593      7504  TIP3      H2            -15.5714303985      -28.9849457466       15.5161853365  SOLV      7493            0.0000000000
     22594      7505  TIP3      OH2           -10.8720103985      -27.8190557466       15.9417853365  SOLV      7494            0.0000000000
     22595      7505  TIP3      H1            -11.1406003985      -27.6388457466       16.8426753365  SOLV      7494            0.0000000000
     22596      7505  TIP3      H2            -11.0784503985      -28.7444357466       15.8103653365  SOLV      7494            0.0000000000
     22597      7506  TIP3      OH2           -15.0749703985      -30.8936057466       18.5117853365  SOLV      7495            0.0000000000
     22598      7506  TIP3      H1            -15.5347703985      -31.3777757466       19.1976353365  SOLV      7495            0.0000000000
     22599      7506  TIP3      H2            -14.8201003985      -31.5620657466       17.8758353365  SOLV      7495            0.0000000000
     22600      7507  TIP3      OH2           -14.0039303985      -32.6504257466       16.7741053365  SOLV      7496            0.0000000000
     22601      7507  TIP3      H1            -14.1844303985      -32.8053057466       15.8469353365  SOLV      7496            0.0000000000
     22602      7507  TIP3      H2            -13.0538803985      -32.5425557466       16.8188953365  SOLV      7496            0.0000000000
     22603      7508  TIP3      OH2            -4.6141003985      -30.2960057466       16.2199153365  SOLV      7497            0.0000000000
     22604      7508  TIP3      H1             -4.8876203985      -30.7204557466       15.4067453365  SOLV      7497            0.0000000000
     22605      7508  TIP3      H2             -4.5746903985      -29.3645557466       16.0029553365  SOLV      7497            0.0000000000
     22606      7509  TIP3      OH2           -14.1067603985      -21.9600557466       17.7754653365  SOLV      7498            0.0000000000
     22607      7509  TIP3      H1            -13.1736903985      -21.8021857466       17.9193053365  SOLV      7498            0.0000000000
     22608      7509  TIP3      H2            -14.3708803985      -21.2847557466       17.1506153365  SOLV      7498            0.0000000000
     22609      7510  TIP3      OH2           -20.5382703985      -27.3236757466       17.2582753365  SOLV      7499            0.0000000000
     22610      7510  TIP3      H1            -19.6243503985      -27.2447857466       17.5316653365  SOLV      7499            0.0000000000
     22611      7510  TIP3      H2            -20.5309603985      -28.0107157466       16.5918353365  SOLV      7499            0.0000000000
     22612      7511  TIP3      OH2           -21.8892103985      -21.9308257466       22.3356653365  SOLV      7500            0.0000000000
     22613      7511  TIP3      H1            -22.5365003985      -22.3926557466       21.8027853365  SOLV      7500            0.0000000000
     22614      7511  TIP3      H2            -21.5347503985      -22.6024957466       22.9182853365  SOLV      7500            0.0000000000
     22615      7512  TIP3      OH2            -3.4708103985      -23.0404857466       27.1207653365  SOLV      7501            0.0000000000
     22616      7512  TIP3      H1             -3.4921403985      -22.8556457466       28.0597053365  SOLV      7501            0.0000000000
     22617      7512  TIP3      H2             -2.7801903985      -22.4720857466       26.7799053365  SOLV      7501            0.0000000000
     22618      7513  TIP3      OH2            -3.9075203985      -23.4733757466       30.0426753365  SOLV      7502            0.0000000000
     22619      7513  TIP3      H1             -4.3946503985      -24.2089657466       29.6714153365  SOLV      7502            0.0000000000
     22620      7513  TIP3      H2             -3.3582503985      -23.8669857466       30.7206153365  SOLV      7502            0.0000000000
     22621      7514  TIP3      OH2            -4.1558203985      -29.4271957466       20.1949553365  SOLV      7503            0.0000000000
     22622      7514  TIP3      H1             -3.3056803985      -29.0061057466       20.3221153365  SOLV      7503            0.0000000000
     22623      7514  TIP3      H2             -4.1503103985      -30.1671857466       20.8020953365  SOLV      7503            0.0000000000
     22624      7515  TIP3      OH2            -3.7612603985      -31.3734557466       22.0185253365  SOLV      7504            0.0000000000
     22625      7515  TIP3      H1             -4.4878003985      -31.8531957466       22.4162853365  SOLV      7504            0.0000000000
     22626      7515  TIP3      H2             -3.1799303985      -31.1679857466       22.7506853365  SOLV      7504            0.0000000000
     22627      7516  TIP3      OH2            -4.0021403985      -28.5887057466       26.9662853365  SOLV      7505            0.0000000000
     22628      7516  TIP3      H1             -3.1687203985      -28.9667057466       26.6856453365  SOLV      7505            0.0000000000
     22629      7516  TIP3      H2             -3.8901103985      -27.6455857466       26.8471953365  SOLV      7505            0.0000000000
     22630      7517  TIP3      OH2            -5.5159103985      -25.7109557466       29.2731253365  SOLV      7506            0.0000000000
     22631      7517  TIP3      H1             -6.1633803985      -25.3858057466       29.8986453365  SOLV      7506            0.0000000000
     22632      7517  TIP3      H2             -6.0335103985      -26.1511857466       28.5989553365  SOLV      7506            0.0000000000
     22633      7518  TIP3      OH2            -3.4929503985      -31.4726057466       18.4096553365  SOLV      7507            0.0000000000
     22634      7518  TIP3      H1             -4.0148403985      -31.1161957466       17.6907453365  SOLV      7507            0.0000000000
     22635      7518  TIP3      H2             -3.5260303985      -30.7978257466       19.0877453365  SOLV      7507            0.0000000000
     22636      7519  TIP3      OH2            -5.1440503985      -34.2330457466       16.9603653365  SOLV      7508            0.0000000000
     22637      7519  TIP3      H1             -5.0476103985      -33.5663457466       16.2803353365  SOLV      7508            0.0000000000
     22638      7519  TIP3      H2             -5.2840903985      -35.0484157466       16.4789153365  SOLV      7508            0.0000000000
     22639      7520  TIP3      OH2            -5.9745803985      -32.8528057466       22.5813953365  SOLV      7509            0.0000000000
     22640      7520  TIP3      H1             -6.1247003985      -33.7979457466       22.5611753365  SOLV      7509            0.0000000000
     22641      7520  TIP3      H2             -6.3281303985      -32.5716657466       23.4253053365  SOLV      7509            0.0000000000
     22642      7521  TIP3      OH2            -6.2641003985      -35.2702257466       21.0439053365  SOLV      7510            0.0000000000
     22643      7521  TIP3      H1             -5.9843903985      -36.1771857466       21.1680753365  SOLV      7510            0.0000000000
     22644      7521  TIP3      H2             -5.5049303985      -34.8360757466       20.6548253365  SOLV      7510            0.0000000000
     22645      7522  TIP3      OH2            -5.6522703985      -34.6884857466       26.4797953365  SOLV      7511            0.0000000000
     22646      7522  TIP3      H1             -4.7194703985      -34.4764957466       26.4453953365  SOLV      7511            0.0000000000
     22647      7522  TIP3      H2             -5.8875203985      -34.5872757466       27.4020953365  SOLV      7511            0.0000000000
     22648      7523  TIP3      OH2            -6.7322103985      -22.9505457466       22.6929453365  SOLV      7512            0.0000000000
     22649      7523  TIP3      H1             -6.0799203985      -23.2983357466       22.0848553365  SOLV      7512            0.0000000000
     22650      7523  TIP3      H2             -6.2218303985      -22.4622257466       23.3389153365  SOLV      7512            0.0000000000
     22651      7524  TIP3      OH2           -11.8136803985      -22.3026157466       27.7472853365  SOLV      7513            0.0000000000
     22652      7524  TIP3      H1            -12.2702803985      -21.7736457466       27.0931253365  SOLV      7513            0.0000000000
     22653      7524  TIP3      H2            -11.6508803985      -21.6994757466       28.4725153365  SOLV      7513            0.0000000000
     22654      7525  TIP3      OH2            -9.4860503985      -23.4246557466       28.6923153365  SOLV      7514            0.0000000000
     22655      7525  TIP3      H1            -10.3906803985      -23.2596357466       28.4265253365  SOLV      7514            0.0000000000
     22656      7525  TIP3      H2             -9.0571903985      -22.5714357466       28.6266553365  SOLV      7514            0.0000000000
     22657      7526  TIP3      OH2            -6.8818603985      -21.8547457466       28.9870953365  SOLV      7515            0.0000000000
     22658      7526  TIP3      H1             -7.0636603985      -20.9388557466       28.7765853365  SOLV      7515            0.0000000000
     22659      7526  TIP3      H2             -6.7050803985      -22.2650357466       28.1405553365  SOLV      7515            0.0000000000
     22660      7527  TIP3      OH2           -14.8981303985      -23.9878457466       25.9559353365  SOLV      7516            0.0000000000
     22661      7527  TIP3      H1            -14.6855603985      -24.8759457466       25.6690253365  SOLV      7516            0.0000000000
     22662      7527  TIP3      H2            -14.8336203985      -24.0220757466       26.9103353365  SOLV      7516            0.0000000000
     22663      7528  TIP3      OH2           -20.3257203985      -23.9437257466       19.6233753365  SOLV      7517            0.0000000000
     22664      7528  TIP3      H1            -21.0107303985      -23.9818357466       18.9558853365  SOLV      7517            0.0000000000
     22665      7528  TIP3      H2            -20.3220003985      -23.0309657466       19.9115853365  SOLV      7517            0.0000000000
     22666      7529  TIP3      OH2           -11.4613703985      -22.7342357466       18.0209953365  SOLV      7518            0.0000000000
     22667      7529  TIP3      H1            -10.5953503985      -22.3674957466       17.8428153365  SOLV      7518            0.0000000000
     22668      7529  TIP3      H2            -11.7080903985      -23.1734357466       17.2070753365  SOLV      7518            0.0000000000
     22669      7530  TIP3      OH2            -4.7524103985      -23.1712057466       20.7001053365  SOLV      7519            0.0000000000
     22670      7530  TIP3      H1             -4.9467003985      -23.9189957466       20.1350653365  SOLV      7519            0.0000000000
     22671      7530  TIP3      H2             -4.7914003985      -22.4131957466       20.1168953365  SOLV      7519            0.0000000000
     22672      7531  TIP3      OH2           -18.5076003985      -23.0236457466       16.6485853365  SOLV      7520            0.0000000000
     22673      7531  TIP3      H1            -18.7751403985      -22.7373557466       17.5218953365  SOLV      7520            0.0000000000
     22674      7531  TIP3      H2            -17.7363403985      -23.5697257466       16.8008353365  SOLV      7520            0.0000000000
     22675      7532  TIP3      OH2             8.8712496015      -30.5335257466       22.8810053365  SOLV      7521            0.0000000000
     22676      7532  TIP3      H1              8.9603596015      -29.5897057466       22.7487153365  SOLV      7521            0.0000000000
     22677      7532  TIP3      H2              8.2330096015      -30.8088857466       22.2229453365  SOLV      7521            0.0000000000
     22678      7533  TIP3      OH2             7.8043796015      -31.2784557466       26.2998253365  SOLV      7522            0.0000000000
     22679      7533  TIP3      H1              7.7661296015      -31.9248257466       27.0047853365  SOLV      7522            0.0000000000
     22680      7533  TIP3      H2              7.4820296015      -31.7450157466       25.5286953365  SOLV      7522            0.0000000000
     22681      7534  TIP3      OH2             0.1728796015      -31.6642457466       27.8928153365  SOLV      7523            0.0000000000
     22682      7534  TIP3      H1              0.2140896015      -32.2899157466       28.6160553365  SOLV      7523            0.0000000000
     22683      7534  TIP3      H2              0.8756496015      -31.0403857466       28.0748553365  SOLV      7523            0.0000000000
     22684      7535  TIP3      OH2            11.5103996015      -28.3394157466       24.6013353365  SOLV      7524            0.0000000000
     22685      7535  TIP3      H1             11.0696696015      -29.0598157466       25.0518953365  SOLV      7524            0.0000000000
     22686      7535  TIP3      H2             11.4973696015      -27.6186957466       25.2311053365  SOLV      7524            0.0000000000
     22687      7536  TIP3      OH2             1.0961896015      -27.2143557466       26.4277253365  SOLV      7525            0.0000000000
     22688      7536  TIP3      H1              0.7267096015      -28.0163057466       26.0581553365  SOLV      7525            0.0000000000
     22689      7536  TIP3      H2              2.0372996015      -27.3828657466       26.4740653365  SOLV      7525            0.0000000000
     22690      7537  TIP3      OH2            -2.2937603985      -33.5540957466       21.8206053365  SOLV      7526            0.0000000000
     22691      7537  TIP3      H1             -2.7414203985      -32.7082257466       21.8022553365  SOLV      7526            0.0000000000
     22692      7537  TIP3      H2             -2.8546403985      -34.1336757466       21.3051153365  SOLV      7526            0.0000000000
     22693      7538  TIP3      OH2            -1.5831503985      -31.3921357466       23.9464053365  SOLV      7527            0.0000000000
     22694      7538  TIP3      H1             -1.3698003985      -32.1619757466       24.4737053365  SOLV      7527            0.0000000000
     22695      7538  TIP3      H2             -0.8453903985      -31.3024657466       23.3431653365  SOLV      7527            0.0000000000
     22696      7539  TIP3      OH2             8.6219496015      -23.2352457466       24.8133753365  SOLV      7528            0.0000000000
     22697      7539  TIP3      H1              9.2415896015      -23.9117757466       24.5402953365  SOLV      7528            0.0000000000
     22698      7539  TIP3      H2              8.4136896015      -23.4531657466       25.7218653365  SOLV      7528            0.0000000000
     22699      7540  TIP3      OH2             6.1938196015      -28.8463157466       26.7059253365  SOLV      7529            0.0000000000
     22700      7540  TIP3      H1              6.4976096015      -29.5321757466       26.1113353365  SOLV      7529            0.0000000000
     22701      7540  TIP3      H2              6.9152196015      -28.7274457466       27.3237253365  SOLV      7529            0.0000000000
     22702      7541  TIP3      OH2             9.3345196015      -34.4520757466       27.0334053365  SOLV      7530            0.0000000000
     22703      7541  TIP3      H1              9.4771096015      -35.3983757466       27.0535653365  SOLV      7530            0.0000000000
     22704      7541  TIP3      H2              9.2284196015      -34.2450957466       26.1048953365  SOLV      7530            0.0000000000
     22705      7542  TIP3      OH2             2.4893496015      -36.3504357466       24.3058853365  SOLV      7531            0.0000000000
     22706      7542  TIP3      H1              2.5324596015      -35.4905857466       23.8875153365  SOLV      7531            0.0000000000
     22707      7542  TIP3      H2              2.0317596015      -36.9029657466       23.6722053365  SOLV      7531            0.0000000000
     22708      7543  TIP3      OH2            10.2116196015      -36.2198757466       22.7067153365  SOLV      7532            0.0000000000
     22709      7543  TIP3      H1             10.8580496015      -36.5485557466       23.3314753365  SOLV      7532            0.0000000000
     22710      7543  TIP3      H2             10.7215596015      -35.7019757466       22.0838553365  SOLV      7532            0.0000000000
     22711      7544  TIP3      OH2            -0.8905003985      -33.9538557466       25.0680253365  SOLV      7533            0.0000000000
     22712      7544  TIP3      H1             -0.2368403985      -34.5036857466       25.5000353365  SOLV      7533            0.0000000000
     22713      7544  TIP3      H2             -0.8665703985      -34.2279557466       24.1512253365  SOLV      7533            0.0000000000
     22714      7545  TIP3      OH2             4.2659496015      -32.4037257466       24.2831753365  SOLV      7534            0.0000000000
     22715      7545  TIP3      H1              4.8820496015      -32.9301857466       24.7925753365  SOLV      7534            0.0000000000
     22716      7545  TIP3      H2              3.6798296015      -33.0438557466       23.8795353365  SOLV      7534            0.0000000000
     22717      7546  TIP3      OH2             8.6685196015      -27.9324857466       21.9238753365  SOLV      7535            0.0000000000
     22718      7546  TIP3      H1              8.3730296015      -28.2552557466       21.0725653365  SOLV      7535            0.0000000000
     22719      7546  TIP3      H2              8.3442996015      -27.0328157466       21.9651353365  SOLV      7535            0.0000000000
     22720      7547  TIP3      OH2             3.8686796015      -29.7570257466       28.6673353365  SOLV      7536            0.0000000000
     22721      7547  TIP3      H1              3.1285896015      -29.1588757466       28.7708553365  SOLV      7536            0.0000000000
     22722      7547  TIP3      H2              4.5826296015      -29.2030657466       28.3516953365  SOLV      7536            0.0000000000
     22723      7548  TIP3      OH2             0.8932696015      -35.5404157466       26.3321853365  SOLV      7537            0.0000000000
     22724      7548  TIP3      H1              1.5068996015      -34.9076557466       26.7054253365  SOLV      7537            0.0000000000
     22725      7548  TIP3      H2              1.4053396015      -36.0129157466       25.6758753365  SOLV      7537            0.0000000000
     22726      7549  TIP3      OH2             2.2761096015      -27.7927257466       29.4544853365  SOLV      7538            0.0000000000
     22727      7549  TIP3      H1              2.2708696015      -26.9133757466       29.0764153365  SOLV      7538            0.0000000000
     22728      7549  TIP3      H2              1.4225196015      -27.8763157466       29.8794753365  SOLV      7538            0.0000000000
     22729      7550  TIP3      OH2            -1.6028003985      -28.1219357466       20.2364153365  SOLV      7539            0.0000000000
     22730      7550  TIP3      H1             -1.8747103985      -27.8928357466       19.3477053365  SOLV      7539            0.0000000000
     22731      7550  TIP3      H2             -1.5572303985      -27.2840557466       20.6969453365  SOLV      7539            0.0000000000
     22732      7551  TIP3      OH2            12.0221696015      -26.5003457466       26.9492653365  SOLV      7540            0.0000000000
     22733      7551  TIP3      H1             11.0805396015      -26.4419557466       27.1109553365  SOLV      7540            0.0000000000
     22734      7551  TIP3      H2             12.2987796015      -25.5942957466       26.8122353365  SOLV      7540            0.0000000000
     22735      7552  TIP3      OH2            10.2742896015      -24.7189957466       23.5744253365  SOLV      7541            0.0000000000
     22736      7552  TIP3      H1             10.6995196015      -25.4262057466       23.0893853365  SOLV      7541            0.0000000000
     22737      7552  TIP3      H2             10.5912896015      -23.9177257466       23.1576453365  SOLV      7541            0.0000000000
     22738      7553  TIP3      OH2            11.4339396015      -26.8181457466       22.0830853365  SOLV      7542            0.0000000000
     22739      7553  TIP3      H1             11.1764196015      -27.5081357466       21.4716753365  SOLV      7542            0.0000000000
     22740      7553  TIP3      H2             11.5050196015      -27.2610257466       22.9286753365  SOLV      7542            0.0000000000
     22741      7554  TIP3      OH2             7.5924996015      -31.2895257466       20.3330353365  SOLV      7543            0.0000000000
     22742      7554  TIP3      H1              6.8810496015      -30.7545557466       19.9810853365  SOLV      7543            0.0000000000
     22743      7554  TIP3      H2              8.2834596015      -31.2343157466       19.6729253365  SOLV      7543            0.0000000000
     22744      7555  TIP3      OH2             7.6464196015      -32.8320957466       17.3715353365  SOLV      7544            0.0000000000
     22745      7555  TIP3      H1              8.3474096015      -32.8094057466       18.0229353365  SOLV      7544            0.0000000000
     22746      7555  TIP3      H2              7.9487096015      -33.4601257466       16.7154653365  SOLV      7544            0.0000000000
     22747      7556  TIP3      OH2            10.9982696015      -31.0801957466       21.2846253365  SOLV      7545            0.0000000000
     22748      7556  TIP3      H1             10.2663696015      -30.8518257466       21.8576853365  SOLV      7545            0.0000000000
     22749      7556  TIP3      H2             11.4454896015      -31.7939257466       21.7393753365  SOLV      7545            0.0000000000
     22750      7557  TIP3      OH2             2.6436396015      -30.4495757466       23.1671253365  SOLV      7546            0.0000000000
     22751      7557  TIP3      H1              2.3131596015      -30.8202357466       22.3488253365  SOLV      7546            0.0000000000
     22752      7557  TIP3      H2              3.2320496015      -31.1201757466       23.5139553365  SOLV      7546            0.0000000000
     22753      7558  TIP3      OH2             4.0103896015      -27.0215157466       25.8483453365  SOLV      7547            0.0000000000
     22754      7558  TIP3      H1              3.9155196015      -27.6002057466       25.0918053365  SOLV      7547            0.0000000000
     22755      7558  TIP3      H2              4.7397496015      -27.3929457466       26.3446253365  SOLV      7547            0.0000000000
     22756      7559  TIP3      OH2             3.0101896015      -31.6810157466       26.8006253365  SOLV      7548            0.0000000000
     22757      7559  TIP3      H1              3.5754396015      -31.5595957466       26.0377453365  SOLV      7548            0.0000000000
     22758      7559  TIP3      H2              3.3290796015      -31.0435157466       27.4394753365  SOLV      7548            0.0000000000
     22759      7560  TIP3      OH2             9.3194096015      -26.1778257466       27.5346753365  SOLV      7549            0.0000000000
     22760      7560  TIP3      H1              9.0790696015      -25.5155157466       28.1825953365  SOLV      7549            0.0000000000
     22761      7560  TIP3      H2              9.1212296015      -27.0123057466       27.9596353365  SOLV      7549            0.0000000000
     22762      7561  TIP3      OH2             3.8902596015      -27.2817457466       31.5178153365  SOLV      7550            0.0000000000
     22763      7561  TIP3      H1              3.5790096015      -26.4994257466       31.9731353365  SOLV      7550            0.0000000000
     22764      7561  TIP3      H2              3.2402796015      -27.4348357466       30.8320153365  SOLV      7550            0.0000000000
     22765      7562  TIP3      OH2             9.8692196015      -31.9179057466       18.9697453365  SOLV      7551            0.0000000000
     22766      7562  TIP3      H1             10.4487696015      -31.7678757466       19.7166353365  SOLV      7551            0.0000000000
     22767      7562  TIP3      H2             10.2832196015      -31.4471657466       18.2463853365  SOLV      7551            0.0000000000
     22768      7563  TIP3      OH2             0.8102496015      -31.0836357466       30.7463853365  SOLV      7552            0.0000000000
     22769      7563  TIP3      H1              0.8805696015      -30.4329557466       31.4448853365  SOLV      7552            0.0000000000
     22770      7563  TIP3      H2             -0.0805303985      -30.9808857466       30.4114753365  SOLV      7552            0.0000000000
     22771      7564  TIP3      OH2             7.5957096015      -25.1810557466       22.4050553365  SOLV      7553            0.0000000000
     22772      7564  TIP3      H1              8.0694696015      -24.8854257466       23.1824753365  SOLV      7553            0.0000000000
     22773      7564  TIP3      H2              7.0326396015      -24.4428957466       22.1720153365  SOLV      7553            0.0000000000
     22774      7565  TIP3      OH2             2.1298496015      -25.2102457466       32.2811953365  SOLV      7554            0.0000000000
     22775      7565  TIP3      H1              2.1373796015      -25.3462757466       31.3337453365  SOLV      7554            0.0000000000
     22776      7565  TIP3      H2              1.2138896015      -25.3274357466       32.5331953365  SOLV      7554            0.0000000000
     22777      7566  TIP3      OH2             1.6339096015      -31.3801457466       20.7564053365  SOLV      7555            0.0000000000
     22778      7566  TIP3      H1              1.3420396015      -30.6119757466       20.2655353365  SOLV      7555            0.0000000000
     22779      7566  TIP3      H2              0.9594296015      -32.0395257466       20.5935453365  SOLV      7555            0.0000000000
     22780      7567  TIP3      OH2            14.7571996015      -25.8016257466       17.1591053365  SOLV      7556            0.0000000000
     22781      7567  TIP3      H1             14.8305496015      -24.8626057466       17.3296353365  SOLV      7556            0.0000000000
     22782      7567  TIP3      H2             15.6627096015      -26.1067657466       17.1028353365  SOLV      7556            0.0000000000
     22783      7568  TIP3      OH2            -2.2730803985      -29.0172257466       29.5713853365  SOLV      7557            0.0000000000
     22784      7568  TIP3      H1             -2.7742403985      -29.0452857466       28.7563553365  SOLV      7557            0.0000000000
     22785      7568  TIP3      H2             -2.2677103985      -29.9229057466       29.8811153365  SOLV      7557            0.0000000000
     22786      7569  TIP3      OH2            -2.5228103985      -26.2368457466       26.4554053365  SOLV      7558            0.0000000000
     22787      7569  TIP3      H1             -1.5767503985      -26.3811457466       26.4363553365  SOLV      7558            0.0000000000
     22788      7569  TIP3      H2             -2.6351803985      -25.4525657466       26.9925253365  SOLV      7558            0.0000000000
     22789      7570  TIP3      OH2             6.6534396015      -25.9969557466       31.0139153365  SOLV      7559            0.0000000000
     22790      7570  TIP3      H1              6.7408996015      -25.1704957466       31.4888253365  SOLV      7559            0.0000000000
     22791      7570  TIP3      H2              5.7899496015      -26.3265757466       31.2628453365  SOLV      7559            0.0000000000
     22792      7571  TIP3      OH2             7.0680196015      -22.2245857466       20.8199753365  SOLV      7560            0.0000000000
     22793      7571  TIP3      H1              6.9926196015      -22.3458657466       19.8734953365  SOLV      7560            0.0000000000
     22794      7571  TIP3      H2              7.1008896015      -21.2753157466       20.9384353365  SOLV      7560            0.0000000000
     22795      7572  TIP3      OH2             0.7213996015      -23.4358857466       22.6008753365  SOLV      7561            0.0000000000
     22796      7572  TIP3      H1              0.8734396015      -23.7838457466       23.4795253365  SOLV      7561            0.0000000000
     22797      7572  TIP3      H2             -0.1295603985      -23.7921557466       22.3455953365  SOLV      7561            0.0000000000
     22798      7573  TIP3      OH2             9.8384296015      -23.1448557466       20.5714353365  SOLV      7562            0.0000000000
     22799      7573  TIP3      H1              8.9034096015      -23.0446657466       20.7501353365  SOLV      7562            0.0000000000
     22800      7573  TIP3      H2             10.1186196015      -23.8542557466       21.1497553365  SOLV      7562            0.0000000000
     22801      7574  TIP3      OH2            -0.0240303985      -27.6936857466       30.6146653365  SOLV      7563            0.0000000000
     22802      7574  TIP3      H1              0.1920996015      -28.0551257466       31.4742453365  SOLV      7563            0.0000000000
     22803      7574  TIP3      H2             -0.8795603985      -28.0683057466       30.4050153365  SOLV      7563            0.0000000000
     22804      7575  TIP3      OH2            11.3465296015      -30.8850757466       16.5995353365  SOLV      7564            0.0000000000
     22805      7575  TIP3      H1             11.3886096015      -31.1076857466       15.6695353365  SOLV      7564            0.0000000000
     22806      7575  TIP3      H2             12.1957396015      -30.4863657466       16.7895253365  SOLV      7564            0.0000000000
     22807      7576  TIP3      OH2             2.6857796015      -34.2581857466       27.7051053365  SOLV      7565            0.0000000000
     22808      7576  TIP3      H1              2.0439896015      -34.2984557466       28.4141153365  SOLV      7565            0.0000000000
     22809      7576  TIP3      H2              2.7229796015      -33.3317157466       27.4674053365  SOLV      7565            0.0000000000
     22810      7577  TIP3      OH2             2.6826896015      -34.0371757466       22.6171053365  SOLV      7566            0.0000000000
     22811      7577  TIP3      H1              1.7899796015      -34.3775657466       22.5584853365  SOLV      7566            0.0000000000
     22812      7577  TIP3      H2              3.1333496015      -34.4140857466       21.8614253365  SOLV      7566            0.0000000000
     22813      7578  TIP3      OH2             8.2182396015      -33.6211457466       21.4341853365  SOLV      7567            0.0000000000
     22814      7578  TIP3      H1              7.8092696015      -32.8062857466       21.1426653365  SOLV      7567            0.0000000000
     22815      7578  TIP3      H2              8.9388596015      -33.7611357466       20.8198953365  SOLV      7567            0.0000000000
     22816      7579  TIP3      OH2             9.2230096015      -34.1751057466       24.2481553365  SOLV      7568            0.0000000000
     22817      7579  TIP3      H1              9.0274596015      -33.5694257466       23.5332153365  SOLV      7568            0.0000000000
     22818      7579  TIP3      H2              9.4042696015      -35.0085857466       23.8137853365  SOLV      7568            0.0000000000
     22819      7580  TIP3      OH2             0.4358296015      -33.9378357466       29.5723053365  SOLV      7569            0.0000000000
     22820      7580  TIP3      H1              0.3977696015      -33.5376757466       30.4410153365  SOLV      7569            0.0000000000
     22821      7580  TIP3      H2             -0.0550603985      -34.7545957466       29.6625953365  SOLV      7569            0.0000000000
     22822      7581  TIP3      OH2             3.8015696015      -36.5636057466       16.3709053365  SOLV      7570            0.0000000000
     22823      7581  TIP3      H1              3.3706396015      -37.0085957466       17.1006453365  SOLV      7570            0.0000000000
     22824      7581  TIP3      H2              3.0834396015      -36.1919757466       15.8586553365  SOLV      7570            0.0000000000
     22825      7582  TIP3      OH2            -1.6818803985      -36.0754557466       18.8468153365  SOLV      7571            0.0000000000
     22826      7582  TIP3      H1             -1.2077103985      -35.4844657466       18.2619053365  SOLV      7571            0.0000000000
     22827      7582  TIP3      H2             -2.3992403985      -35.5451657466       19.1938253365  SOLV      7571            0.0000000000
     22828      7583  TIP3      OH2             5.2642196015      -36.6094257466       23.7035153365  SOLV      7572            0.0000000000
     22829      7583  TIP3      H1              4.3533296015      -36.5527457466       23.9921153365  SOLV      7572            0.0000000000
     22830      7583  TIP3      H2              5.7695096015      -36.6698757466       24.5142353365  SOLV      7572            0.0000000000
     22831      7584  TIP3      OH2             0.0925596015      -34.9807957466       22.5302753365  SOLV      7573            0.0000000000
     22832      7584  TIP3      H1             -0.7966403985      -34.8812457466       22.1902353365  SOLV      7573            0.0000000000
     22833      7584  TIP3      H2              0.3890496015      -35.8224957466       22.1840653365  SOLV      7573            0.0000000000
     22834      7585  TIP3      OH2             3.7457396015      -34.9805357466       20.1867353365  SOLV      7574            0.0000000000
     22835      7585  TIP3      H1              4.6772896015      -34.8515357466       20.3650453365  SOLV      7574            0.0000000000
     22836      7585  TIP3      H2              3.5307696015      -34.3111057466       19.5372053365  SOLV      7574            0.0000000000
     22837      7586  TIP3      OH2             2.4197596015      -33.7863157466       17.7533453365  SOLV      7575            0.0000000000
     22838      7586  TIP3      H1              1.8772696015      -34.1659357466       17.0621053365  SOLV      7575            0.0000000000
     22839      7586  TIP3      H2              3.2532496015      -33.5918457466       17.3247553365  SOLV      7575            0.0000000000
     22840      7587  TIP3      OH2            12.9569196015      -21.7032557466       33.2444553365  SOLV      7576            0.0000000000
     22841      7587  TIP3      H1             13.1567896015      -21.2790657466       32.4099853365  SOLV      7576            0.0000000000
     22842      7587  TIP3      H2             13.6122896015      -21.3594357466       33.8514953365  SOLV      7576            0.0000000000
     22843      7588  TIP3      OH2             0.5548996015      -29.2291257466       32.8525053365  SOLV      7577            0.0000000000
     22844      7588  TIP3      H1              1.2871396015      -28.9745357466       33.4139553365  SOLV      7577            0.0000000000
     22845      7588  TIP3      H2             -0.2252303985      -29.0245857466       33.3680453365  SOLV      7577            0.0000000000
     22846      7589  TIP3      OH2             6.5841896015      -33.8221257466       25.5904753365  SOLV      7578            0.0000000000
     22847      7589  TIP3      H1              7.1485296015      -34.3684657466       25.0434353365  SOLV      7578            0.0000000000
     22848      7589  TIP3      H2              6.4365296015      -34.3439357466       26.3792353365  SOLV      7578            0.0000000000
     22849      7590  TIP3      OH2             5.2107796015      -35.4335157466       28.0045153365  SOLV      7579            0.0000000000
     22850      7590  TIP3      H1              4.3753096015      -34.9795657466       28.1147553365  SOLV      7579            0.0000000000
     22851      7590  TIP3      H2              5.7348396015      -35.1576657466       28.7565053365  SOLV      7579            0.0000000000
     22852      7591  TIP3      OH2             5.7550396015      -29.2207457466       19.6891553365  SOLV      7580            0.0000000000
     22853      7591  TIP3      H1              5.0101396015      -29.7282157466       19.3669453365  SOLV      7580            0.0000000000
     22854      7591  TIP3      H2              5.6207596015      -29.1719457466       20.6356353365  SOLV      7580            0.0000000000
     22855      7592  TIP3      OH2            12.9049296015      -30.0879257466       28.4759153365  SOLV      7581            0.0000000000
     22856      7592  TIP3      H1             13.5468096015      -29.6312957466       27.9321353365  SOLV      7581            0.0000000000
     22857      7592  TIP3      H2             12.0746196015      -29.9746857466       28.0133253365  SOLV      7581            0.0000000000
     22858      7593  TIP3      OH2             9.6527196015      -36.4067557466       17.8884153365  SOLV      7582            0.0000000000
     22859      7593  TIP3      H1              8.7141396015      -36.2951957466       17.7372953365  SOLV      7582            0.0000000000
     22860      7593  TIP3      H2              9.9499296015      -35.5500657466       18.1949853365  SOLV      7582            0.0000000000
     22861      7594  TIP3      OH2             7.2742496015      -29.0364157466       30.9260653365  SOLV      7583            0.0000000000
     22862      7594  TIP3      H1              6.9288596015      -29.4181757466       31.7330253365  SOLV      7583            0.0000000000
     22863      7594  TIP3      H2              7.0742596015      -28.1030557466       30.9973553365  SOLV      7583            0.0000000000
     22864      7595  TIP3      OH2            10.3710696015      -34.5394857466       19.5491553365  SOLV      7584            0.0000000000
     22865      7595  TIP3      H1             11.2629696015      -34.6769857466       19.8682753365  SOLV      7584            0.0000000000
     22866      7595  TIP3      H2             10.4274296015      -33.7488757466       19.0125053365  SOLV      7584            0.0000000000
     22867      7596  TIP3      OH2             0.8798696015      -29.9257457466       25.4589453365  SOLV      7585            0.0000000000
     22868      7596  TIP3      H1              1.6245896015      -29.9281757466       24.8575953365  SOLV      7585            0.0000000000
     22869      7596  TIP3      H2              0.9575296015      -30.7493657466       25.9404553365  SOLV      7585            0.0000000000
     22870      7597  TIP3      OH2             7.8804496015      -27.7623157466       18.7146153365  SOLV      7586            0.0000000000
     22871      7597  TIP3      H1              7.5852896015      -26.9355257466       19.0960953365  SOLV      7586            0.0000000000
     22872      7597  TIP3      H2              7.1774496015      -28.3816257466       18.9107553365  SOLV      7586            0.0000000000
     22873      7598  TIP3      OH2             9.5246096015      -26.5748657466       30.8765653365  SOLV      7587            0.0000000000
     22874      7598  TIP3      H1              8.6240396015      -26.3916057466       30.6089553365  SOLV      7587            0.0000000000
     22875      7598  TIP3      H2              9.5587196015      -26.3159357466       31.7974453365  SOLV      7587            0.0000000000
     22876      7599  TIP3      OH2            15.2559396015      -34.3300757466       19.2438253365  SOLV      7588            0.0000000000
     22877      7599  TIP3      H1             14.7015696015      -34.7262757466       18.5715753365  SOLV      7588            0.0000000000
     22878      7599  TIP3      H2             15.3562996015      -33.4195557466       18.9661553365  SOLV      7588            0.0000000000
     22879      7600  TIP3      OH2            13.5511096015      -25.5440357466       19.7090353365  SOLV      7589            0.0000000000
     22880      7600  TIP3      H1             13.1782196015      -26.3696557466       20.0180953365  SOLV      7589            0.0000000000
     22881      7600  TIP3      H2             13.8284596015      -25.7270957466       18.8113753365  SOLV      7589            0.0000000000
     22882      7601  TIP3      OH2            10.7114996015      -30.7360857466       26.7302253365  SOLV      7590            0.0000000000
     22883      7601  TIP3      H1              9.7831896015      -30.9678957466       26.7031553365  SOLV      7590            0.0000000000
     22884      7601  TIP3      H2             11.1626096015      -31.5131057466       26.4001053365  SOLV      7590            0.0000000000
     22885      7602  TIP3      OH2             3.2548096015      -26.4079257466       22.8630953365  SOLV      7591            0.0000000000
     22886      7602  TIP3      H1              3.7820296015      -25.6344857466       22.6629753365  SOLV      7591            0.0000000000
     22887      7602  TIP3      H2              2.3746596015      -26.1830057466       22.5614953365  SOLV      7591            0.0000000000
     22888      7603  TIP3      OH2            -0.9904203985      -31.5455157466       17.4503353365  SOLV      7592            0.0000000000
     22889      7603  TIP3      H1             -0.3744303985      -30.9187957466       17.8298153365  SOLV      7592            0.0000000000
     22890      7603  TIP3      H2             -1.8521603985      -31.2295357466       17.7219853365  SOLV      7592            0.0000000000
     22891      7604  TIP3      OH2             4.6820396015      -28.7449357466       22.4395253365  SOLV      7593            0.0000000000
     22892      7604  TIP3      H1              4.4410396015      -27.8194957466       22.4810553365  SOLV      7593            0.0000000000
     22893      7604  TIP3      H2              3.9413996015      -29.2038057466       22.8359153365  SOLV      7593            0.0000000000
     22894      7605  TIP3      OH2             5.1966996015      -24.5955757466       28.7546353365  SOLV      7594            0.0000000000
     22895      7605  TIP3      H1              5.5591696015      -23.7410157466       28.5210753365  SOLV      7594            0.0000000000
     22896      7605  TIP3      H2              5.7282196015      -24.8874157466       29.4952653365  SOLV      7594            0.0000000000
     22897      7606  TIP3      OH2             3.3651196015      -23.7231757466       21.9847453365  SOLV      7595            0.0000000000
     22898      7606  TIP3      H1              2.4151696015      -23.6174357466       22.0360753365  SOLV      7595            0.0000000000
     22899      7606  TIP3      H2              3.7169296015      -22.9024357466       22.3294953365  SOLV      7595            0.0000000000
     22900      7607  TIP3      OH2             8.7407796015      -28.4965057466       28.4551953365  SOLV      7596            0.0000000000
     22901      7607  TIP3      H1              8.3149096015      -28.7243357466       29.2815953365  SOLV      7596            0.0000000000
     22902      7607  TIP3      H2              9.3213596015      -29.2353257466       28.2727253365  SOLV      7596            0.0000000000
     22903      7608  TIP3      OH2            10.9436696015      -27.5674557466       17.5290953365  SOLV      7597            0.0000000000
     22904      7608  TIP3      H1             11.2969796015      -27.9474757466       18.3334453365  SOLV      7597            0.0000000000
     22905      7608  TIP3      H2              9.9950196015      -27.6609757466       17.6160253365  SOLV      7597            0.0000000000
     22906      7609  TIP3      OH2            11.3991996015      -23.9445557466       30.9246753365  SOLV      7598            0.0000000000
     22907      7609  TIP3      H1             10.7975196015      -24.5002657466       30.4293053365  SOLV      7598            0.0000000000
     22908      7609  TIP3      H2             11.6805696015      -23.2775757466       30.2984153365  SOLV      7598            0.0000000000
     22909      7610  TIP3      OH2            15.4471096015      -23.0882057466       17.7301153365  SOLV      7599            0.0000000000
     22910      7610  TIP3      H1             16.1908996015      -22.5021557466       17.5902753365  SOLV      7599            0.0000000000
     22911      7610  TIP3      H2             14.7529196015      -22.5196257466       18.0633553365  SOLV      7599            0.0000000000
     22912      7611  TIP3      OH2            11.8095996015      -28.8952557466       19.7558853365  SOLV      7600            0.0000000000
     22913      7611  TIP3      H1             11.5323596015      -29.6233257466       20.3119953365  SOLV      7600            0.0000000000
     22914      7611  TIP3      H2             12.7368996015      -28.7760557466       19.9611453365  SOLV      7600            0.0000000000
     22915      7612  TIP3      OH2            -0.8270103985      -24.9073457466       28.7668753365  SOLV      7601            0.0000000000
     22916      7612  TIP3      H1             -0.6099803985      -25.8391057466       28.7358453365  SOLV      7601            0.0000000000
     22917      7612  TIP3      H2             -0.5806603985      -24.6328457466       29.6501553365  SOLV      7601            0.0000000000
     22918      7613  TIP3      OH2             5.0344496015      -26.4558457466       15.9760953365  SOLV      7602            0.0000000000
     22919      7613  TIP3      H1              5.2734296015      -27.2040357466       15.4289853365  SOLV      7602            0.0000000000
     22920      7613  TIP3      H2              4.7655796015      -26.8436757466       16.8088753365  SOLV      7602            0.0000000000
     22921      7614  TIP3      OH2             3.9715096015      -26.8854657466       18.4323553365  SOLV      7603            0.0000000000
     22922      7614  TIP3      H1              4.1183096015      -27.4054857466       19.2224453365  SOLV      7603            0.0000000000
     22923      7614  TIP3      H2              3.9686796015      -25.9787057466       18.7389453365  SOLV      7603            0.0000000000
     22924      7615  TIP3      OH2             0.4246196015      -29.6331357466       18.9428953365  SOLV      7604            0.0000000000
     22925      7615  TIP3      H1             -0.2614503985      -29.2808857466       19.5098653365  SOLV      7604            0.0000000000
     22926      7615  TIP3      H2              0.9474096015      -28.8701757466       18.6963253365  SOLV      7604            0.0000000000
     22927      7616  TIP3      OH2             6.7092296015      -25.1881057466       19.1817753365  SOLV      7605            0.0000000000
     22928      7616  TIP3      H1              5.8928396015      -24.6911357466       19.2342053365  SOLV      7605            0.0000000000
     22929      7616  TIP3      H2              7.2388596015      -24.7127557466       18.5416553365  SOLV      7605            0.0000000000
     22930      7617  TIP3      OH2             6.2406096015      -35.5907057466       21.1538653365  SOLV      7606            0.0000000000
     22931      7617  TIP3      H1              7.0528696015      -35.0863857466       21.2000353365  SOLV      7606            0.0000000000
     22932      7617  TIP3      H2              5.9959096015      -35.7357357466       22.0678253365  SOLV      7606            0.0000000000
     22933      7618  TIP3      OH2             4.0475396015      -24.1443857466       19.1634653365  SOLV      7607            0.0000000000
     22934      7618  TIP3      H1              4.2084096015      -23.3446357466       18.6627253365  SOLV      7607            0.0000000000
     22935      7618  TIP3      H2              3.8503196015      -23.8377857466       20.0485253365  SOLV      7607            0.0000000000
     22936      7619  TIP3      OH2            11.5829296015      -32.9473057466       25.2692253365  SOLV      7608            0.0000000000
     22937      7619  TIP3      H1             10.7853696015      -33.3622857466       24.9407253365  SOLV      7608            0.0000000000
     22938      7619  TIP3      H2             12.0280396015      -33.6379357466       25.7602753365  SOLV      7608            0.0000000000
     22939      7620  TIP3      OH2             1.0405096015      -27.0192457466       17.8396753365  SOLV      7609            0.0000000000
     22940      7620  TIP3      H1              1.6326596015      -26.3197657466       18.1159153365  SOLV      7609            0.0000000000
     22941      7620  TIP3      H2              1.4998096015      -27.4522957466       17.1201353365  SOLV      7609            0.0000000000
     22942      7621  TIP3      OH2            -0.6435703985      -34.3549457466       16.9556153365  SOLV      7610            0.0000000000
     22943      7621  TIP3      H1             -0.6883103985      -33.4156357466       17.1343153365  SOLV      7610            0.0000000000
     22944      7621  TIP3      H2             -1.5312503985      -34.5904557466       16.6858253365  SOLV      7610            0.0000000000
     22945      7622  TIP3      OH2            12.6693896015      -23.6910557466       26.8915753365  SOLV      7611            0.0000000000
     22946      7622  TIP3      H1             12.5138196015      -23.0126157466       26.2345053365  SOLV      7611            0.0000000000
     22947      7622  TIP3      H2             13.6020296015      -23.6191257466       27.0946353365  SOLV      7611            0.0000000000
     22948      7623  TIP3      OH2            -0.9050403985      -25.6325757466       21.7892953365  SOLV      7612            0.0000000000
     22949      7623  TIP3      H1             -1.7371803985      -25.1603057466       21.8164353365  SOLV      7612            0.0000000000
     22950      7623  TIP3      H2             -0.3592103985      -25.1228157466       21.1906053365  SOLV      7612            0.0000000000
     22951      7624  TIP3      OH2            -1.6166703985      -23.0202057466       33.1190953365  SOLV      7613            0.0000000000
     22952      7624  TIP3      H1             -1.0764503985      -23.2368057466       33.8790153365  SOLV      7613            0.0000000000
     22953      7624  TIP3      H2             -2.0978703985      -23.8256057466       32.9293453365  SOLV      7613            0.0000000000
     22954      7625  TIP3      OH2             2.9806696015      -24.1007657466       34.7395153365  SOLV      7614            0.0000000000
     22955      7625  TIP3      H1              3.7483896015      -24.5596857466       35.0804353365  SOLV      7614            0.0000000000
     22956      7625  TIP3      H2              2.9592896015      -24.3267857466       33.8096353365  SOLV      7614            0.0000000000
     22957      7626  TIP3      OH2             2.6316496015      -28.8662257466       16.2059853365  SOLV      7615            0.0000000000
     22958      7626  TIP3      H1              2.6960596015      -29.6602657466       16.7366253365  SOLV      7615            0.0000000000
     22959      7626  TIP3      H2              3.2845696015      -28.9849457466       15.5161853365  SOLV      7615            0.0000000000
     22960      7627  TIP3      OH2             4.9458896015      -29.2399857466       33.5061653365  SOLV      7616            0.0000000000
     22961      7627  TIP3      H1              4.6172696015      -28.9691757466       32.6489053365  SOLV      7616            0.0000000000
     22962      7627  TIP3      H2              5.0977096015      -30.1810057466       33.4186653365  SOLV      7616            0.0000000000
     22963      7628  TIP3      OH2             7.9839896015      -27.8190557466       15.9417853365  SOLV      7617            0.0000000000
     22964      7628  TIP3      H1              7.7153996015      -27.6388457466       16.8426753365  SOLV      7617            0.0000000000
     22965      7628  TIP3      H2              7.7775496015      -28.7444357466       15.8103653365  SOLV      7617            0.0000000000
     22966      7629  TIP3      OH2             3.7810296015      -30.8936057466       18.5117853365  SOLV      7618            0.0000000000
     22967      7629  TIP3      H1              3.3212296015      -31.3777757466       19.1976353365  SOLV      7618            0.0000000000
     22968      7629  TIP3      H2              4.0358996015      -31.5620657466       17.8758353365  SOLV      7618            0.0000000000
     22969      7630  TIP3      OH2             3.0699596015      -33.0008957466       30.8677453365  SOLV      7619            0.0000000000
     22970      7630  TIP3      H1              2.4515696015      -32.3262357466       31.1482153365  SOLV      7619            0.0000000000
     22971      7630  TIP3      H2              3.4140796015      -32.6795057466       30.0343653365  SOLV      7619            0.0000000000
     22972      7631  TIP3      OH2             4.8520696015      -32.6504257466       16.7741053365  SOLV      7620            0.0000000000
     22973      7631  TIP3      H1              4.6715696015      -32.8053057466       15.8469353365  SOLV      7620            0.0000000000
     22974      7631  TIP3      H2              5.8021196015      -32.5425557466       16.8188953365  SOLV      7620            0.0000000000
     22975      7632  TIP3      OH2            14.2418996015      -30.2960057466       16.2199153365  SOLV      7621            0.0000000000
     22976      7632  TIP3      H1             13.9683796015      -30.7204557466       15.4067453365  SOLV      7621            0.0000000000
     22977      7632  TIP3      H2             14.2813096015      -29.3645557466       16.0029553365  SOLV      7621            0.0000000000
     22978      7633  TIP3      OH2             5.4037396015      -31.8366157466       29.6823153365  SOLV      7622            0.0000000000
     22979      7633  TIP3      H1              6.1542196015      -31.9928657466       29.1090953365  SOLV      7622            0.0000000000
     22980      7633  TIP3      H2              5.0645696015      -30.9849557466       29.4068653365  SOLV      7622            0.0000000000
     22981      7634  TIP3      OH2             4.7492396015      -21.9600557466       17.7754653365  SOLV      7623            0.0000000000
     22982      7634  TIP3      H1              5.6823096015      -21.8021857466       17.9193053365  SOLV      7623            0.0000000000
     22983      7634  TIP3      H2              4.4851196015      -21.2847557466       17.1506153365  SOLV      7623            0.0000000000
     22984      7635  TIP3      OH2            -1.6822703985      -27.3236757466       17.2582753365  SOLV      7624            0.0000000000
     22985      7635  TIP3      H1             -0.7683503985      -27.2447857466       17.5316653365  SOLV      7624            0.0000000000
     22986      7635  TIP3      H2             -1.6749603985      -28.0107157466       16.5918353365  SOLV      7624            0.0000000000
     22987      7636  TIP3      OH2            -3.0332103985      -21.9308257466       22.3356653365  SOLV      7625            0.0000000000
     22988      7636  TIP3      H1             -3.6805003985      -22.3926557466       21.8027853365  SOLV      7625            0.0000000000
     22989      7636  TIP3      H2             -2.6787503985      -22.6024957466       22.9182853365  SOLV      7625            0.0000000000
     22990      7637  TIP3      OH2            -2.1632903985      -23.8501257466       24.1402853365  SOLV      7626            0.0000000000
     22991      7637  TIP3      H1             -2.4976103985      -24.7303957466       24.3123053365  SOLV      7626            0.0000000000
     22992      7637  TIP3      H2             -1.9410503985      -23.5046257466       25.0048453365  SOLV      7626            0.0000000000
     22993      7638  TIP3      OH2            15.3851896015      -23.0404857466       27.1207653365  SOLV      7627            0.0000000000
     22994      7638  TIP3      H1             15.3638596015      -22.8556457466       28.0597053365  SOLV      7627            0.0000000000
     22995      7638  TIP3      H2             16.0758096015      -22.4720857466       26.7799053365  SOLV      7627            0.0000000000
     22996      7639  TIP3      OH2            14.9484796015      -23.4733757466       30.0426753365  SOLV      7628            0.0000000000
     22997      7639  TIP3      H1             14.4613496015      -24.2089657466       29.6714153365  SOLV      7628            0.0000000000
     22998      7639  TIP3      H2             15.4977496015      -23.8669857466       30.7206153365  SOLV      7628            0.0000000000
     22999      7640  TIP3      OH2            14.7001796015      -29.4271957466       20.1949553365  SOLV      7629            0.0000000000
     23000      7640  TIP3      H1             15.5503196015      -29.0061057466       20.3221153365  SOLV      7629            0.0000000000
     23001      7640  TIP3      H2             14.7056896015      -30.1671857466       20.8020953365  SOLV      7629            0.0000000000
     23002      7641  TIP3      OH2            15.0947396015      -31.3734557466       22.0185253365  SOLV      7630            0.0000000000
     23003      7641  TIP3      H1             14.3681996015      -31.8531957466       22.4162853365  SOLV      7630            0.0000000000
     23004      7641  TIP3      H2             15.6760696015      -31.1679857466       22.7506853365  SOLV      7630            0.0000000000
     23005      7642  TIP3      OH2            14.8538596015      -28.5887057466       26.9662853365  SOLV      7631            0.0000000000
     23006      7642  TIP3      H1             15.6872796015      -28.9667057466       26.6856453365  SOLV      7631            0.0000000000
     23007      7642  TIP3      H2             14.9658896015      -27.6455857466       26.8471953365  SOLV      7631            0.0000000000
     23008      7643  TIP3      OH2            13.3400896015      -25.7109557466       29.2731253365  SOLV      7632            0.0000000000
     23009      7643  TIP3      H1             12.6926196015      -25.3858057466       29.8986453365  SOLV      7632            0.0000000000
     23010      7643  TIP3      H2             12.8224896015      -26.1511857466       28.5989553365  SOLV      7632            0.0000000000
     23011      7644  TIP3      OH2            15.3630496015      -31.4726057466       18.4096553365  SOLV      7633            0.0000000000
     23012      7644  TIP3      H1             14.8411596015      -31.1161957466       17.6907453365  SOLV      7633            0.0000000000
     23013      7644  TIP3      H2             15.3299696015      -30.7978257466       19.0877453365  SOLV      7633            0.0000000000
     23014      7645  TIP3      OH2            13.7119496015      -34.2330457466       16.9603653365  SOLV      7634            0.0000000000
     23015      7645  TIP3      H1             13.8083896015      -33.5663457466       16.2803353365  SOLV      7634            0.0000000000
     23016      7645  TIP3      H2             13.5719096015      -35.0484157466       16.4789153365  SOLV      7634            0.0000000000
     23017      7646  TIP3      OH2            12.8814196015      -32.8528057466       22.5813953365  SOLV      7635            0.0000000000
     23018      7646  TIP3      H1             12.7312996015      -33.7979457466       22.5611753365  SOLV      7635            0.0000000000
     23019      7646  TIP3      H2             12.5278696015      -32.5716657466       23.4253053365  SOLV      7635            0.0000000000
     23020      7647  TIP3      OH2            -2.0833403985      -30.7745857466       26.5917753365  SOLV      7636            0.0000000000
     23021      7647  TIP3      H1             -1.8990503985      -30.8564157466       25.6560653365  SOLV      7636            0.0000000000
     23022      7647  TIP3      H2             -1.2340503985      -30.8988857466       27.0154153365  SOLV      7636            0.0000000000
     23023      7648  TIP3      OH2            12.5918996015      -35.2702257466       21.0439053365  SOLV      7637            0.0000000000
     23024      7648  TIP3      H1             12.8716096015      -36.1771857466       21.1680753365  SOLV      7637            0.0000000000
     23025      7648  TIP3      H2             13.3510696015      -34.8360757466       20.6548253365  SOLV      7637            0.0000000000
     23026      7649  TIP3      OH2            -2.9605803985      -34.1926257466       26.6929653365  SOLV      7638            0.0000000000
     23027      7649  TIP3      H1             -2.4686003985      -34.4135757466       25.9021653365  SOLV      7638            0.0000000000
     23028      7649  TIP3      H2             -2.5984903985      -33.3522857466       26.9739153365  SOLV      7638            0.0000000000
     23029      7650  TIP3      OH2            12.1237896015      -22.9505457466       22.6929453365  SOLV      7639            0.0000000000
     23030      7650  TIP3      H1             12.7760796015      -23.2983357466       22.0848553365  SOLV      7639            0.0000000000
     23031      7650  TIP3      H2             12.6341696015      -22.4622257466       23.3389153365  SOLV      7639            0.0000000000
     23032      7651  TIP3      OH2            -0.4914603985      -26.0214057466       33.2360353365  SOLV      7640            0.0000000000
     23033      7651  TIP3      H1             -1.3122103985      -25.8467557466       32.7755053365  SOLV      7640            0.0000000000
     23034      7651  TIP3      H2             -0.7436803985      -26.0949357466       34.1564753365  SOLV      7640            0.0000000000
     23035      7652  TIP3      OH2             2.4628296015      -25.0472857466       29.4944353365  SOLV      7641            0.0000000000
     23036      7652  TIP3      H1              2.0379396015      -24.2374357466       29.2118953365  SOLV      7641            0.0000000000
     23037      7652  TIP3      H2              3.3671096015      -24.9618757466       29.1924153365  SOLV      7641            0.0000000000
     23038      7653  TIP3      OH2             6.7739696015      -23.6482857466       32.4538053365  SOLV      7642            0.0000000000
     23039      7653  TIP3      H1              6.9587196015      -23.9816757466       33.3318353365  SOLV      7642            0.0000000000
     23040      7653  TIP3      H2              7.6204196015      -23.3384257466       32.1317253365  SOLV      7642            0.0000000000
     23041      7654  TIP3      OH2             9.1190096015      -22.3623957466       31.6979453365  SOLV      7643            0.0000000000
     23042      7654  TIP3      H1              9.7958996015      -22.9951657466       31.4578653365  SOLV      7643            0.0000000000
     23043      7654  TIP3      H2              9.4408896015      -21.9613457466       32.5052753365  SOLV      7643            0.0000000000
     23044      7655  TIP3      OH2            -0.1355003985      -21.7908957466       29.5419653365  SOLV      7644            0.0000000000
     23045      7655  TIP3      H1             -0.8558603985      -21.3507957466       29.0907353365  SOLV      7644            0.0000000000
     23046      7655  TIP3      H2             -0.5011003985      -22.0414257466       30.3903653365  SOLV      7644            0.0000000000
     23047      7656  TIP3      OH2             2.3317596015      -22.1905057466       28.5716853365  SOLV      7645            0.0000000000
     23048      7656  TIP3      H1              1.4669796015      -22.1186557466       28.9756953365  SOLV      7645            0.0000000000
     23049      7656  TIP3      H2              2.2766596015      -21.6437757466       27.7879353365  SOLV      7645            0.0000000000
     23050      7657  TIP3      OH2             7.0423196015      -22.3026157466       27.7472853365  SOLV      7646            0.0000000000
     23051      7657  TIP3      H1              6.5857196015      -21.7736457466       27.0931253365  SOLV      7646            0.0000000000
     23052      7657  TIP3      H2              7.2051196015      -21.6994757466       28.4725153365  SOLV      7646            0.0000000000
     23053      7658  TIP3      OH2             9.3699496015      -23.4246557466       28.6923153365  SOLV      7647            0.0000000000
     23054      7658  TIP3      H1              8.4653196015      -23.2596357466       28.4265253365  SOLV      7647            0.0000000000
     23055      7658  TIP3      H2              9.7988096015      -22.5714357466       28.6266553365  SOLV      7647            0.0000000000
     23056      7659  TIP3      OH2            11.9741396015      -21.8547457466       28.9870953365  SOLV      7648            0.0000000000
     23057      7659  TIP3      H1             11.7923396015      -20.9388557466       28.7765853365  SOLV      7648            0.0000000000
     23058      7659  TIP3      H2             12.1509196015      -22.2650357466       28.1405553365  SOLV      7648            0.0000000000
     23059      7660  TIP3      OH2            -0.7206903985      -23.1676457466       26.4521453365  SOLV      7649            0.0000000000
     23060      7660  TIP3      H1             -0.7390903985      -23.5931357466       27.3093753365  SOLV      7649            0.0000000000
     23061      7660  TIP3      H2              0.0840996015      -23.4861457466       26.0433653365  SOLV      7649            0.0000000000
     23062      7661  TIP3      OH2             1.4206196015      -24.4577757466       25.1071353365  SOLV      7650            0.0000000000
     23063      7661  TIP3      H1              1.2016896015      -25.3740357466       25.2767353365  SOLV      7650            0.0000000000
     23064      7661  TIP3      H2              2.2448396015      -24.3177357466       25.5732753365  SOLV      7650            0.0000000000
     23065      7662  TIP3      OH2             3.9578696015      -23.9878457466       25.9559353365  SOLV      7651            0.0000000000
     23066      7662  TIP3      H1              4.1704396015      -24.8759457466       25.6690253365  SOLV      7651            0.0000000000
     23067      7662  TIP3      H2              4.0223796015      -24.0220757466       26.9103353365  SOLV      7651            0.0000000000
     23068      7663  TIP3      OH2            -1.4697203985      -23.9437257466       19.6233753365  SOLV      7652            0.0000000000
     23069      7663  TIP3      H1             -2.1547303985      -23.9818357466       18.9558853365  SOLV      7652            0.0000000000
     23070      7663  TIP3      H2             -1.4660003985      -23.0309657466       19.9115853365  SOLV      7652            0.0000000000
     23071      7664  TIP3      OH2             7.3946296015      -22.7342357466       18.0209953365  SOLV      7653            0.0000000000
     23072      7664  TIP3      H1              8.2606496015      -22.3674957466       17.8428153365  SOLV      7653            0.0000000000
     23073      7664  TIP3      H2              7.1479096015      -23.1734357466       17.2070753365  SOLV      7653            0.0000000000
     23074      7665  TIP3      OH2            14.1035896015      -23.1712057466       20.7001053365  SOLV      7654            0.0000000000
     23075      7665  TIP3      H1             13.9092996015      -23.9189957466       20.1350653365  SOLV      7654            0.0000000000
     23076      7665  TIP3      H2             14.0645996015      -22.4131957466       20.1168953365  SOLV      7654            0.0000000000
     23077      7666  TIP3      OH2             0.3483996015      -23.0236457466       16.6485853365  SOLV      7655            0.0000000000
     23078      7666  TIP3      H1              0.0808596015      -22.7373557466       17.5218953365  SOLV      7655            0.0000000000
     23079      7666  TIP3      H2              1.1196596015      -23.5697257466       16.8008353365  SOLV      7655            0.0000000000
     23080      7667  TIP3      OH2            13.3212096015      -24.4199657466       32.8502853365  SOLV      7656            0.0000000000
     23081      7667  TIP3      H1             12.5393996015      -24.6061657466       32.3303453365  SOLV      7656            0.0000000000
     23082      7667  TIP3      H2             13.2491996015      -23.4905357466       33.0675353365  SOLV      7656            0.0000000000
     23083      7668  TIP3      OH2            16.5622396015      -33.5540957466       21.8206053365  SOLV      7657            0.0000000000
     23084      7668  TIP3      H1             16.1145796015      -32.7082257466       21.8022553365  SOLV      7657            0.0000000000
     23085      7668  TIP3      H2             16.0013596015      -34.1336757466       21.3051153365  SOLV      7657            0.0000000000
     23086      7669  TIP3      OH2            17.2728496015      -31.3921357466       23.9464053365  SOLV      7658            0.0000000000
     23087      7669  TIP3      H1             17.4861996015      -32.1619757466       24.4737053365  SOLV      7658            0.0000000000
     23088      7669  TIP3      H2             18.0106096015      -31.3024657466       23.3431653365  SOLV      7658            0.0000000000
     23089      7670  TIP3      OH2            27.4779496015      -23.2352457466       24.8133753365  SOLV      7659            0.0000000000
     23090      7670  TIP3      H1             28.0975896015      -23.9117757466       24.5402953365  SOLV      7659            0.0000000000
     23091      7670  TIP3      H2             27.2696896015      -23.4531657466       25.7218653365  SOLV      7659            0.0000000000
     23092      7671  TIP3      OH2            27.5245196015      -27.9324857466       21.9238753365  SOLV      7660            0.0000000000
     23093      7671  TIP3      H1             27.2290296015      -28.2552557466       21.0725653365  SOLV      7660            0.0000000000
     23094      7671  TIP3      H2             27.2002996015      -27.0328157466       21.9651353365  SOLV      7660            0.0000000000
     23095      7672  TIP3      OH2            17.2531996015      -28.1219357466       20.2364153365  SOLV      7661            0.0000000000
     23096      7672  TIP3      H1             16.9812896015      -27.8928357466       19.3477053365  SOLV      7661            0.0000000000
     23097      7672  TIP3      H2             17.2987696015      -27.2840557466       20.6969453365  SOLV      7661            0.0000000000
     23098      7673  TIP3      OH2            26.5024196015      -32.8320957466       17.3715353365  SOLV      7662            0.0000000000
     23099      7673  TIP3      H1             27.2034096015      -32.8094057466       18.0229353365  SOLV      7662            0.0000000000
     23100      7673  TIP3      H2             26.8047096015      -33.4601257466       16.7154653365  SOLV      7662            0.0000000000
     23101      7674  TIP3      OH2            26.4517096015      -25.1810557466       22.4050553365  SOLV      7663            0.0000000000
     23102      7674  TIP3      H1             26.9254696015      -24.8854257466       23.1824753365  SOLV      7663            0.0000000000
     23103      7674  TIP3      H2             25.8886396015      -24.4428957466       22.1720153365  SOLV      7663            0.0000000000
     23104      7675  TIP3      OH2            20.4899096015      -31.3801457466       20.7564053365  SOLV      7664            0.0000000000
     23105      7675  TIP3      H1             20.1980396015      -30.6119757466       20.2655353365  SOLV      7664            0.0000000000
     23106      7675  TIP3      H2             19.8154296015      -32.0395257466       20.5935453365  SOLV      7664            0.0000000000
     23107      7676  TIP3      OH2            16.3331896015      -26.2368457466       26.4554053365  SOLV      7665            0.0000000000
     23108      7676  TIP3      H1             17.2792496015      -26.3811457466       26.4363553365  SOLV      7665            0.0000000000
     23109      7676  TIP3      H2             16.2208196015      -25.4525657466       26.9925253365  SOLV      7665            0.0000000000
     23110      7677  TIP3      OH2            25.9240196015      -22.2245857466       20.8199753365  SOLV      7666            0.0000000000
     23111      7677  TIP3      H1             25.8486196015      -22.3458657466       19.8734953365  SOLV      7666            0.0000000000
     23112      7677  TIP3      H2             25.9568896015      -21.2753157466       20.9384353365  SOLV      7666            0.0000000000
     23113      7678  TIP3      OH2            19.5773996015      -23.4358857466       22.6008753365  SOLV      7667            0.0000000000
     23114      7678  TIP3      H1             19.7294396015      -23.7838457466       23.4795253365  SOLV      7667            0.0000000000
     23115      7678  TIP3      H2             18.7264396015      -23.7921557466       22.3455953365  SOLV      7667            0.0000000000
     23116      7679  TIP3      OH2            29.0256196015      -23.0705657466       17.8222153365  SOLV      7668            0.0000000000
     23117      7679  TIP3      H1             29.4004596015      -23.8149557466       17.3514753365  SOLV      7668            0.0000000000
     23118      7679  TIP3      H2             29.0299896015      -23.3405057466       18.7405453365  SOLV      7668            0.0000000000
     23119      7680  TIP3      OH2            28.6944296015      -23.1448557466       20.5714353365  SOLV      7669            0.0000000000
     23120      7680  TIP3      H1             27.7594096015      -23.0446657466       20.7501353365  SOLV      7669            0.0000000000
     23121      7680  TIP3      H2             28.9746196015      -23.8542557466       21.1497553365  SOLV      7669            0.0000000000
     23122      7681  TIP3      OH2            22.6575696015      -36.5636057466       16.3709053365  SOLV      7670            0.0000000000
     23123      7681  TIP3      H1             22.2266396015      -37.0085957466       17.1006453365  SOLV      7670            0.0000000000
     23124      7681  TIP3      H2             21.9394396015      -36.1919757466       15.8586553365  SOLV      7670            0.0000000000
     23125      7682  TIP3      OH2            17.1741196015      -36.0754557466       18.8468153365  SOLV      7671            0.0000000000
     23126      7682  TIP3      H1             17.6482896015      -35.4844657466       18.2619053365  SOLV      7671            0.0000000000
     23127      7682  TIP3      H2             16.4567596015      -35.5451657466       19.1938253365  SOLV      7671            0.0000000000
     23128      7683  TIP3      OH2            21.2757596015      -33.7863157466       17.7533453365  SOLV      7672            0.0000000000
     23129      7683  TIP3      H1             20.7332696015      -34.1659357466       17.0621053365  SOLV      7672            0.0000000000
     23130      7683  TIP3      H2             22.1092496015      -33.5918457466       17.3247553365  SOLV      7672            0.0000000000
     23131      7684  TIP3      OH2            24.6110396015      -29.2207457466       19.6891553365  SOLV      7673            0.0000000000
     23132      7684  TIP3      H1             23.8661396015      -29.7282157466       19.3669453365  SOLV      7673            0.0000000000
     23133      7684  TIP3      H2             24.4767596015      -29.1719457466       20.6356353365  SOLV      7673            0.0000000000
     23134      7685  TIP3      OH2            26.7364496015      -27.7623157466       18.7146153365  SOLV      7674            0.0000000000
     23135      7685  TIP3      H1             26.4412896015      -26.9355257466       19.0960953365  SOLV      7674            0.0000000000
     23136      7685  TIP3      H2             26.0334496015      -28.3816257466       18.9107553365  SOLV      7674            0.0000000000
     23137      7686  TIP3      OH2            22.1108096015      -26.4079257466       22.8630953365  SOLV      7675            0.0000000000
     23138      7686  TIP3      H1             22.6380296015      -25.6344857466       22.6629753365  SOLV      7675            0.0000000000
     23139      7686  TIP3      H2             21.2306596015      -26.1830057466       22.5614953365  SOLV      7675            0.0000000000
     23140      7687  TIP3      OH2            17.8655796015      -31.5455157466       17.4503353365  SOLV      7676            0.0000000000
     23141      7687  TIP3      H1             18.4815696015      -30.9187957466       17.8298153365  SOLV      7676            0.0000000000
     23142      7687  TIP3      H2             17.0038396015      -31.2295357466       17.7219853365  SOLV      7676            0.0000000000
     23143      7688  TIP3      OH2            23.5380396015      -28.7449357466       22.4395253365  SOLV      7677            0.0000000000
     23144      7688  TIP3      H1             23.2970396015      -27.8194957466       22.4810553365  SOLV      7677            0.0000000000
     23145      7688  TIP3      H2             22.7973996015      -29.2038057466       22.8359153365  SOLV      7677            0.0000000000
     23146      7689  TIP3      OH2            22.2211196015      -23.7231757466       21.9847453365  SOLV      7678            0.0000000000
     23147      7689  TIP3      H1             21.2711696015      -23.6174357466       22.0360753365  SOLV      7678            0.0000000000
     23148      7689  TIP3      H2             22.5729296015      -22.9024357466       22.3294953365  SOLV      7678            0.0000000000
     23149      7690  TIP3      OH2            18.0289896015      -24.9073457466       28.7668753365  SOLV      7679            0.0000000000
     23150      7690  TIP3      H1             18.2460196015      -25.8391057466       28.7358453365  SOLV      7679            0.0000000000
     23151      7690  TIP3      H2             18.2753396015      -24.6328457466       29.6501553365  SOLV      7679            0.0000000000
     23152      7691  TIP3      OH2            23.8904496015      -26.4558457466       15.9760953365  SOLV      7680            0.0000000000
     23153      7691  TIP3      H1             24.1294296015      -27.2040357466       15.4289853365  SOLV      7680            0.0000000000
     23154      7691  TIP3      H2             23.6215796015      -26.8436757466       16.8088753365  SOLV      7680            0.0000000000
     23155      7692  TIP3      OH2            22.8275096015      -26.8854657466       18.4323553365  SOLV      7681            0.0000000000
     23156      7692  TIP3      H1             22.9743096015      -27.4054857466       19.2224453365  SOLV      7681            0.0000000000
     23157      7692  TIP3      H2             22.8246796015      -25.9787057466       18.7389453365  SOLV      7681            0.0000000000
     23158      7693  TIP3      OH2            19.2806196015      -29.6331357466       18.9428953365  SOLV      7682            0.0000000000
     23159      7693  TIP3      H1             18.5945496015      -29.2808857466       19.5098653365  SOLV      7682            0.0000000000
     23160      7693  TIP3      H2             19.8034096015      -28.8701757466       18.6963253365  SOLV      7682            0.0000000000
     23161      7694  TIP3      OH2            25.5652296015      -25.1881057466       19.1817753365  SOLV      7683            0.0000000000
     23162      7694  TIP3      H1             24.7488396015      -24.6911357466       19.2342053365  SOLV      7683            0.0000000000
     23163      7694  TIP3      H2             26.0948596015      -24.7127557466       18.5416553365  SOLV      7683            0.0000000000
     23164      7695  TIP3      OH2            22.9035396015      -24.1443857466       19.1634653365  SOLV      7684            0.0000000000
     23165      7695  TIP3      H1             23.0644096015      -23.3446357466       18.6627253365  SOLV      7684            0.0000000000
     23166      7695  TIP3      H2             22.7063196015      -23.8377857466       20.0485253365  SOLV      7684            0.0000000000
     23167      7696  TIP3      OH2            19.8965096015      -27.0192457466       17.8396753365  SOLV      7685            0.0000000000
     23168      7696  TIP3      H1             20.4886596015      -26.3197657466       18.1159153365  SOLV      7685            0.0000000000
     23169      7696  TIP3      H2             20.3558096015      -27.4522957466       17.1201353365  SOLV      7685            0.0000000000
     23170      7697  TIP3      OH2            18.2124296015      -34.3549457466       16.9556153365  SOLV      7686            0.0000000000
     23171      7697  TIP3      H1             18.1676896015      -33.4156357466       17.1343153365  SOLV      7686            0.0000000000
     23172      7697  TIP3      H2             17.3247496015      -34.5904557466       16.6858253365  SOLV      7686            0.0000000000
     23173      7698  TIP3      OH2            17.9509596015      -25.6325757466       21.7892953365  SOLV      7687            0.0000000000
     23174      7698  TIP3      H1             17.1188196015      -25.1603057466       21.8164353365  SOLV      7687            0.0000000000
     23175      7698  TIP3      H2             18.4967896015      -25.1228157466       21.1906053365  SOLV      7687            0.0000000000
     23176      7699  TIP3      OH2            25.9286296015      -24.5927057466       16.1146953365  SOLV      7688            0.0000000000
     23177      7699  TIP3      H1             25.2847296015      -25.2238457466       16.4360653365  SOLV      7688            0.0000000000
     23178      7699  TIP3      H2             26.6904596015      -25.1239057466       15.8830453365  SOLV      7688            0.0000000000
     23179      7700  TIP3      OH2            21.4876496015      -28.8662257466       16.2059853365  SOLV      7689            0.0000000000
     23180      7700  TIP3      H1             21.5520596015      -29.6602657466       16.7366253365  SOLV      7689            0.0000000000
     23181      7700  TIP3      H2             22.1405696015      -28.9849457466       15.5161853365  SOLV      7689            0.0000000000
     23182      7701  TIP3      OH2            26.8399896015      -27.8190557466       15.9417853365  SOLV      7690            0.0000000000
     23183      7701  TIP3      H1             26.5713996015      -27.6388457466       16.8426753365  SOLV      7690            0.0000000000
     23184      7701  TIP3      H2             26.6335496015      -28.7444357466       15.8103653365  SOLV      7690            0.0000000000
     23185      7702  TIP3      OH2            22.6370296015      -30.8936057466       18.5117853365  SOLV      7691            0.0000000000
     23186      7702  TIP3      H1             22.1772296015      -31.3777757466       19.1976353365  SOLV      7691            0.0000000000
     23187      7702  TIP3      H2             22.8918996015      -31.5620657466       17.8758353365  SOLV      7691            0.0000000000
     23188      7703  TIP3      OH2            23.7080696015      -32.6504257466       16.7741053365  SOLV      7692            0.0000000000
     23189      7703  TIP3      H1             23.5275696015      -32.8053057466       15.8469353365  SOLV      7692            0.0000000000
     23190      7703  TIP3      H2             24.6581196015      -32.5425557466       16.8188953365  SOLV      7692            0.0000000000
     23191      7704  TIP3      OH2            23.6052396015      -21.9600557466       17.7754653365  SOLV      7693            0.0000000000
     23192      7704  TIP3      H1             24.5383096015      -21.8021857466       17.9193053365  SOLV      7693            0.0000000000
     23193      7704  TIP3      H2             23.3411196015      -21.2847557466       17.1506153365  SOLV      7693            0.0000000000
     23194      7705  TIP3      OH2            17.1737296015      -27.3236757466       17.2582753365  SOLV      7694            0.0000000000
     23195      7705  TIP3      H1             18.0876496015      -27.2447857466       17.5316653365  SOLV      7694            0.0000000000
     23196      7705  TIP3      H2             17.1810396015      -28.0107157466       16.5918353365  SOLV      7694            0.0000000000
     23197      7706  TIP3      OH2            15.8227896015      -21.9308257466       22.3356653365  SOLV      7695            0.0000000000
     23198      7706  TIP3      H1             15.1754996015      -22.3926557466       21.8027853365  SOLV      7695            0.0000000000
     23199      7706  TIP3      H2             16.1772496015      -22.6024957466       22.9182853365  SOLV      7695            0.0000000000
     23200      7707  TIP3      OH2            16.6927096015      -23.8501257466       24.1402853365  SOLV      7696            0.0000000000
     23201      7707  TIP3      H1             16.3583896015      -24.7303957466       24.3123053365  SOLV      7696            0.0000000000
     23202      7707  TIP3      H2             16.9149496015      -23.5046257466       25.0048453365  SOLV      7696            0.0000000000
     23203      7708  TIP3      OH2            18.7204996015      -21.7908957466       29.5419653365  SOLV      7697            0.0000000000
     23204      7708  TIP3      H1             18.0001396015      -21.3507957466       29.0907353365  SOLV      7697            0.0000000000
     23205      7708  TIP3      H2             18.3548996015      -22.0414257466       30.3903653365  SOLV      7697            0.0000000000
     23206      7709  TIP3      OH2            21.1877596015      -22.1905057466       28.5716853365  SOLV      7698            0.0000000000
     23207      7709  TIP3      H1             20.3229796015      -22.1186557466       28.9756953365  SOLV      7698            0.0000000000
     23208      7709  TIP3      H2             21.1326596015      -21.6437757466       27.7879353365  SOLV      7698            0.0000000000
     23209      7710  TIP3      OH2            18.1353096015      -23.1676457466       26.4521453365  SOLV      7699            0.0000000000
     23210      7710  TIP3      H1             18.1169096015      -23.5931357466       27.3093753365  SOLV      7699            0.0000000000
     23211      7710  TIP3      H2             18.9400996015      -23.4861457466       26.0433653365  SOLV      7699            0.0000000000
     23212      7711  TIP3      OH2            22.8138696015      -23.9878457466       25.9559353365  SOLV      7700            0.0000000000
     23213      7711  TIP3      H1             23.0264396015      -24.8759457466       25.6690253365  SOLV      7700            0.0000000000
     23214      7711  TIP3      H2             22.8783796015      -24.0220757466       26.9103353365  SOLV      7700            0.0000000000
     23215      7712  TIP3      OH2            17.3862796015      -23.9437257466       19.6233753365  SOLV      7701            0.0000000000
     23216      7712  TIP3      H1             16.7012696015      -23.9818357466       18.9558853365  SOLV      7701            0.0000000000
     23217      7712  TIP3      H2             17.3899996015      -23.0309657466       19.9115853365  SOLV      7701            0.0000000000
     23218      7713  TIP3      OH2            26.2506296015      -22.7342357466       18.0209953365  SOLV      7702            0.0000000000
     23219      7713  TIP3      H1             27.1166496015      -22.3674957466       17.8428153365  SOLV      7702            0.0000000000
     23220      7713  TIP3      H2             26.0039096015      -23.1734357466       17.2070753365  SOLV      7702            0.0000000000
     23221      7714  TIP3      OH2            19.2043996015      -23.0236457466       16.6485853365  SOLV      7703            0.0000000000
     23222      7714  TIP3      H1             18.9368596015      -22.7373557466       17.5218953365  SOLV      7703            0.0000000000
     23223      7714  TIP3      H2             19.9756596015      -23.5697257466       16.8008353365  SOLV      7703            0.0000000000
     23224      7715  TIP3      OH2           -28.8407503985      -11.6775257466       22.8810053365  SOLV      7704            0.0000000000
     23225      7715  TIP3      H1            -28.7516403985      -10.7337057466       22.7487153365  SOLV      7704            0.0000000000
     23226      7715  TIP3      H2            -29.4789903985      -11.9528857466       22.2229453365  SOLV      7704            0.0000000000
     23227      7716  TIP3      OH2           -26.2016003985       -9.4834157466       24.6013353365  SOLV      7705            0.0000000000
     23228      7716  TIP3      H1            -26.6423303985      -10.2038157466       25.0518953365  SOLV      7705            0.0000000000
     23229      7716  TIP3      H2            -26.2146303985       -8.7626957466       25.2311053365  SOLV      7705            0.0000000000
     23230      7717  TIP3      OH2           -29.0900503985       -4.3792457466       24.8133753365  SOLV      7706            0.0000000000
     23231      7717  TIP3      H1            -28.4704103985       -5.0557757466       24.5402953365  SOLV      7706            0.0000000000
     23232      7717  TIP3      H2            -29.2983103985       -4.5971657466       25.7218653365  SOLV      7706            0.0000000000
     23233      7718  TIP3      OH2           -29.0434803985       -9.0764857466       21.9238753365  SOLV      7707            0.0000000000
     23234      7718  TIP3      H1            -29.3389703985       -9.3992557466       21.0725653365  SOLV      7707            0.0000000000
     23235      7718  TIP3      H2            -29.3677003985       -8.1768157466       21.9651353365  SOLV      7707            0.0000000000
     23236      7719  TIP3      OH2           -25.6898303985       -7.6443457466       26.9492653365  SOLV      7708            0.0000000000
     23237      7719  TIP3      H1            -26.6314603985       -7.5859557466       27.1109553365  SOLV      7708            0.0000000000
     23238      7719  TIP3      H2            -25.4132203985       -6.7382957466       26.8122353365  SOLV      7708            0.0000000000
     23239      7720  TIP3      OH2           -27.4377103985       -5.8629957466       23.5744253365  SOLV      7709            0.0000000000
     23240      7720  TIP3      H1            -27.0124803985       -6.5702057466       23.0893853365  SOLV      7709            0.0000000000
     23241      7720  TIP3      H2            -27.1207103985       -5.0617257466       23.1576453365  SOLV      7709            0.0000000000
     23242      7721  TIP3      OH2           -26.2780603985       -7.9621457466       22.0830853365  SOLV      7710            0.0000000000
     23243      7721  TIP3      H1            -26.5355803985       -8.6521357466       21.4716753365  SOLV      7710            0.0000000000
     23244      7721  TIP3      H2            -26.2069803985       -8.4050257466       22.9286753365  SOLV      7710            0.0000000000
     23245      7722  TIP3      OH2           -30.1195003985      -12.4335257466       20.3330353365  SOLV      7711            0.0000000000
     23246      7722  TIP3      H1            -30.8309503985      -11.8985557466       19.9810853365  SOLV      7711            0.0000000000
     23247      7722  TIP3      H2            -29.4285403985      -12.3783157466       19.6729253365  SOLV      7711            0.0000000000
     23248      7723  TIP3      OH2           -30.0655803985      -13.9760957466       17.3715353365  SOLV      7712            0.0000000000
     23249      7723  TIP3      H1            -29.3645903985      -13.9534057466       18.0229353365  SOLV      7712            0.0000000000
     23250      7723  TIP3      H2            -29.7632903985      -14.6041257466       16.7154653365  SOLV      7712            0.0000000000
     23251      7724  TIP3      OH2           -26.7137303985      -12.2241957466       21.2846253365  SOLV      7713            0.0000000000
     23252      7724  TIP3      H1            -27.4456303985      -11.9958257466       21.8576853365  SOLV      7713            0.0000000000
     23253      7724  TIP3      H2            -26.2665103985      -12.9379257466       21.7393753365  SOLV      7713            0.0000000000
     23254      7725  TIP3      OH2           -27.8427803985      -13.0619057466       18.9697453365  SOLV      7714            0.0000000000
     23255      7725  TIP3      H1            -27.2632303985      -12.9118757466       19.7166353365  SOLV      7714            0.0000000000
     23256      7725  TIP3      H2            -27.4287803985      -12.5911657466       18.2463853365  SOLV      7714            0.0000000000
     23257      7726  TIP3      OH2           -30.1162903985       -6.3250557466       22.4050553365  SOLV      7715            0.0000000000
     23258      7726  TIP3      H1            -29.6425303985       -6.0294257466       23.1824753365  SOLV      7715            0.0000000000
     23259      7726  TIP3      H2            -30.6793603985       -5.5868957466       22.1720153365  SOLV      7715            0.0000000000
     23260      7727  TIP3      OH2           -24.1439403985      -21.3118657466       18.7827153365  SOLV      7716            0.0000000000
     23261      7727  TIP3      H1            -25.0438703985      -21.1729657466       19.0777753365  SOLV      7716            0.0000000000
     23262      7727  TIP3      H2            -23.8921003985      -20.4804057466       18.3808853365  SOLV      7716            0.0000000000
     23263      7728  TIP3      OH2           -22.9548003985       -6.9456257466       17.1591053365  SOLV      7717            0.0000000000
     23264      7728  TIP3      H1            -22.8814503985       -6.0066057466       17.3296353365  SOLV      7717            0.0000000000
     23265      7728  TIP3      H2            -22.0492903985       -7.2507657466       17.1028353365  SOLV      7717            0.0000000000
     23266      7729  TIP3      OH2           -30.6439803985       -3.3685857466       20.8199753365  SOLV      7718            0.0000000000
     23267      7729  TIP3      H1            -30.7193803985       -3.4898657466       19.8734953365  SOLV      7718            0.0000000000
     23268      7729  TIP3      H2            -30.6111103985       -2.4193157466       20.9384353365  SOLV      7718            0.0000000000
     23269      7730  TIP3      OH2           -27.5423803985       -4.2145657466       17.8222153365  SOLV      7719            0.0000000000
     23270      7730  TIP3      H1            -27.1675403985       -4.9589557466       17.3514753365  SOLV      7719            0.0000000000
     23271      7730  TIP3      H2            -27.5380103985       -4.4845057466       18.7405453365  SOLV      7719            0.0000000000
     23272      7731  TIP3      OH2           -27.8735703985       -4.2888557466       20.5714353365  SOLV      7720            0.0000000000
     23273      7731  TIP3      H1            -28.8085903985       -4.1886657466       20.7501353365  SOLV      7720            0.0000000000
     23274      7731  TIP3      H2            -27.5933803985       -4.9982557466       21.1497553365  SOLV      7720            0.0000000000
     23275      7732  TIP3      OH2           -26.3654703985      -12.0290757466       16.5995353365  SOLV      7721            0.0000000000
     23276      7732  TIP3      H1            -26.3233903985      -12.2516857466       15.6695353365  SOLV      7721            0.0000000000
     23277      7732  TIP3      H2            -25.5162603985      -11.6303657466       16.7895253365  SOLV      7721            0.0000000000
     23278      7733  TIP3      OH2           -30.7927203985      -18.1532557466       17.2698653365  SOLV      7722            0.0000000000
     23279      7733  TIP3      H1            -31.0462403985      -18.1340957466       18.1926753365  SOLV      7722            0.0000000000
     23280      7733  TIP3      H2            -31.0495103985      -19.0247157466       16.9684853365  SOLV      7722            0.0000000000
     23281      7734  TIP3      OH2           -29.4937603985      -14.7651457466       21.4341853365  SOLV      7723            0.0000000000
     23282      7734  TIP3      H1            -29.9027303985      -13.9502857466       21.1426653365  SOLV      7723            0.0000000000
     23283      7734  TIP3      H2            -28.7731403985      -14.9051357466       20.8198953365  SOLV      7723            0.0000000000
     23284      7735  TIP3      OH2           -33.9104303985      -17.7076057466       16.3709053365  SOLV      7724            0.0000000000
     23285      7735  TIP3      H1            -34.3413603985      -18.1525957466       17.1006453365  SOLV      7724            0.0000000000
     23286      7735  TIP3      H2            -34.6285603985      -17.3359757466       15.8586553365  SOLV      7724            0.0000000000
     23287      7736  TIP3      OH2           -35.2922403985      -14.9303157466       17.7533453365  SOLV      7725            0.0000000000
     23288      7736  TIP3      H1            -35.8347303985      -15.3099357466       17.0621053365  SOLV      7725            0.0000000000
     23289      7736  TIP3      H2            -34.4587503985      -14.7358457466       17.3247553365  SOLV      7725            0.0000000000
     23290      7737  TIP3      OH2           -31.9569603985      -10.3647457466       19.6891553365  SOLV      7726            0.0000000000
     23291      7737  TIP3      H1            -32.7018603985      -10.8722157466       19.3669453365  SOLV      7726            0.0000000000
     23292      7737  TIP3      H2            -32.0912403985      -10.3159457466       20.6356353365  SOLV      7726            0.0000000000
     23293      7738  TIP3      OH2           -28.0592803985      -17.5507557466       17.8884153365  SOLV      7727            0.0000000000
     23294      7738  TIP3      H1            -28.9978603985      -17.4391957466       17.7372953365  SOLV      7727            0.0000000000
     23295      7738  TIP3      H2            -27.7620703985      -16.6940657466       18.1949853365  SOLV      7727            0.0000000000
     23296      7739  TIP3      OH2           -27.3409303985      -15.6834857466       19.5491553365  SOLV      7728            0.0000000000
     23297      7739  TIP3      H1            -26.4490303985      -15.8209857466       19.8682753365  SOLV      7728            0.0000000000
     23298      7739  TIP3      H2            -27.2845703985      -14.8928757466       19.0125053365  SOLV      7728            0.0000000000
     23299      7740  TIP3      OH2           -29.8315503985       -8.9063157466       18.7146153365  SOLV      7729            0.0000000000
     23300      7740  TIP3      H1            -30.1267103985       -8.0795257466       19.0960953365  SOLV      7729            0.0000000000
     23301      7740  TIP3      H2            -30.5345503985       -9.5256257466       18.9107553365  SOLV      7729            0.0000000000
     23302      7741  TIP3      OH2           -22.4560603985      -15.4740757466       19.2438253365  SOLV      7730            0.0000000000
     23303      7741  TIP3      H1            -23.0104303985      -15.8702757466       18.5715753365  SOLV      7730            0.0000000000
     23304      7741  TIP3      H2            -22.3557003985      -14.5635557466       18.9661553365  SOLV      7730            0.0000000000
     23305      7742  TIP3      OH2           -24.1608903985       -6.6880357466       19.7090353365  SOLV      7731            0.0000000000
     23306      7742  TIP3      H1            -24.5337803985       -7.5136557466       20.0180953365  SOLV      7731            0.0000000000
     23307      7742  TIP3      H2            -23.8835403985       -6.8710957466       18.8113753365  SOLV      7731            0.0000000000
     23308      7743  TIP3      OH2           -38.7024203985      -12.6895157466       17.4503353365  SOLV      7732            0.0000000000
     23309      7743  TIP3      H1            -38.0864303985      -12.0627957466       17.8298153365  SOLV      7732            0.0000000000
     23310      7743  TIP3      H2            -39.5641603985      -12.3735357466       17.7219853365  SOLV      7732            0.0000000000
     23311      7744  TIP3      OH2           -34.3468803985       -4.8671757466       21.9847453365  SOLV      7733            0.0000000000
     23312      7744  TIP3      H1            -35.2968303985       -4.7614357466       22.0360753365  SOLV      7733            0.0000000000
     23313      7744  TIP3      H2            -33.9950703985       -4.0464357466       22.3294953365  SOLV      7733            0.0000000000
     23314      7745  TIP3      OH2           -26.7683303985       -8.7114557466       17.5290953365  SOLV      7734            0.0000000000
     23315      7745  TIP3      H1            -26.4150203985       -9.0914757466       18.3334453365  SOLV      7734            0.0000000000
     23316      7745  TIP3      H2            -27.7169803985       -8.8049757466       17.6160253365  SOLV      7734            0.0000000000
     23317      7746  TIP3      OH2           -22.2648903985       -4.2322057466       17.7301153365  SOLV      7735            0.0000000000
     23318      7746  TIP3      H1            -21.5211003985       -3.6461557466       17.5902753365  SOLV      7735            0.0000000000
     23319      7746  TIP3      H2            -22.9590803985       -3.6636257466       18.0633553365  SOLV      7735            0.0000000000
     23320      7747  TIP3      OH2           -25.9024003985      -10.0392557466       19.7558853365  SOLV      7736            0.0000000000
     23321      7747  TIP3      H1            -26.1796403985      -10.7673257466       20.3119953365  SOLV      7736            0.0000000000
     23322      7747  TIP3      H2            -24.9751003985       -9.9200557466       19.9611453365  SOLV      7736            0.0000000000
     23323      7748  TIP3      OH2           -32.6775503985       -7.5998457466       15.9760953365  SOLV      7737            0.0000000000
     23324      7748  TIP3      H1            -32.4385703985       -8.3480357466       15.4289853365  SOLV      7737            0.0000000000
     23325      7748  TIP3      H2            -32.9464203985       -7.9876757466       16.8088753365  SOLV      7737            0.0000000000
     23326      7749  TIP3      OH2           -33.7404903985       -8.0294657466       18.4323553365  SOLV      7738            0.0000000000
     23327      7749  TIP3      H1            -33.5936903985       -8.5494857466       19.2224453365  SOLV      7738            0.0000000000
     23328      7749  TIP3      H2            -33.7433203985       -7.1227057466       18.7389453365  SOLV      7738            0.0000000000
     23329      7750  TIP3      OH2           -37.2873803985      -10.7771357466       18.9428953365  SOLV      7739            0.0000000000
     23330      7750  TIP3      H1            -37.9734503985      -10.4248857466       19.5098653365  SOLV      7739            0.0000000000
     23331      7750  TIP3      H2            -36.7645903985      -10.0141757466       18.6963253365  SOLV      7739            0.0000000000
     23332      7751  TIP3      OH2           -28.6713803985      -18.4625857466       20.3190253365  SOLV      7740            0.0000000000
     23333      7751  TIP3      H1            -28.4515503985      -17.9910457466       19.5155653365  SOLV      7740            0.0000000000
     23334      7751  TIP3      H2            -28.1129803985      -18.0683257466       20.9890853365  SOLV      7740            0.0000000000
     23335      7752  TIP3      OH2           -31.0027703985       -6.3321057466       19.1817753365  SOLV      7741            0.0000000000
     23336      7752  TIP3      H1            -31.8191603985       -5.8351357466       19.2342053365  SOLV      7741            0.0000000000
     23337      7752  TIP3      H2            -30.4731403985       -5.8567557466       18.5416553365  SOLV      7741            0.0000000000
     23338      7753  TIP3      OH2           -33.6644603985       -5.2883857466       19.1634653365  SOLV      7742            0.0000000000
     23339      7753  TIP3      H1            -33.5035903985       -4.4886357466       18.6627253365  SOLV      7742            0.0000000000
     23340      7753  TIP3      H2            -33.8616803985       -4.9817857466       20.0485253365  SOLV      7742            0.0000000000
     23341      7754  TIP3      OH2           -36.6714903985       -8.1632457466       17.8396753365  SOLV      7743            0.0000000000
     23342      7754  TIP3      H1            -36.0793403985       -7.4637657466       18.1159153365  SOLV      7743            0.0000000000
     23343      7754  TIP3      H2            -36.2121903985       -8.5962957466       17.1201353365  SOLV      7743            0.0000000000
     23344      7755  TIP3      OH2           -25.0426103985       -4.8350557466       26.8915753365  SOLV      7744            0.0000000000
     23345      7755  TIP3      H1            -25.1981803985       -4.1566157466       26.2345053365  SOLV      7744            0.0000000000
     23346      7755  TIP3      H2            -24.1099703985       -4.7631257466       27.0946353365  SOLV      7744            0.0000000000
     23347      7756  TIP3      OH2           -30.6393703985       -5.7367057466       16.1146953365  SOLV      7745            0.0000000000
     23348      7756  TIP3      H1            -31.2832703985       -6.3678457466       16.4360653365  SOLV      7745            0.0000000000
     23349      7756  TIP3      H2            -29.8775403985       -6.2679057466       15.8830453365  SOLV      7745            0.0000000000
     23350      7757  TIP3      OH2           -26.0350803985       -5.9197157466       16.3484953365  SOLV      7746            0.0000000000
     23351      7757  TIP3      H1            -25.7520403985       -6.7141957466       16.8011853365  SOLV      7746            0.0000000000
     23352      7757  TIP3      H2            -25.2952903985       -5.6866157466       15.7876053365  SOLV      7746            0.0000000000
     23353      7758  TIP3      OH2           -35.0803503985      -10.0102257466       16.2059853365  SOLV      7747            0.0000000000
     23354      7758  TIP3      H1            -35.0159403985      -10.8042657466       16.7366253365  SOLV      7747            0.0000000000
     23355      7758  TIP3      H2            -34.4274303985      -10.1289457466       15.5161853365  SOLV      7747            0.0000000000
     23356      7759  TIP3      OH2           -29.7280103985       -8.9630557466       15.9417853365  SOLV      7748            0.0000000000
     23357      7759  TIP3      H1            -29.9966003985       -8.7828457466       16.8426753365  SOLV      7748            0.0000000000
     23358      7759  TIP3      H2            -29.9344503985       -9.8884357466       15.8103653365  SOLV      7748            0.0000000000
     23359      7760  TIP3      OH2           -33.9309703985      -12.0376057466       18.5117853365  SOLV      7749            0.0000000000
     23360      7760  TIP3      H1            -34.3907703985      -12.5217757466       19.1976353365  SOLV      7749            0.0000000000
     23361      7760  TIP3      H2            -33.6761003985      -12.7060657466       17.8758353365  SOLV      7749            0.0000000000
     23362      7761  TIP3      OH2           -32.8599303985      -13.7944257466       16.7741053365  SOLV      7750            0.0000000000
     23363      7761  TIP3      H1            -33.0404303985      -13.9493057466       15.8469353365  SOLV      7750            0.0000000000
     23364      7761  TIP3      H2            -31.9098803985      -13.6865557466       16.8188953365  SOLV      7750            0.0000000000
     23365      7762  TIP3      OH2           -23.4701003985      -11.4400057466       16.2199153365  SOLV      7751            0.0000000000
     23366      7762  TIP3      H1            -23.7436203985      -11.8644557466       15.4067453365  SOLV      7751            0.0000000000
     23367      7762  TIP3      H2            -23.4306903985      -10.5085557466       16.0029553365  SOLV      7751            0.0000000000
     23368      7763  TIP3      OH2           -32.9627603985       -3.1040557466       17.7754653365  SOLV      7752            0.0000000000
     23369      7763  TIP3      H1            -32.0296903985       -2.9461857466       17.9193053365  SOLV      7752            0.0000000000
     23370      7763  TIP3      H2            -33.2268803985       -2.4287557466       17.1506153365  SOLV      7752            0.0000000000
     23371      7764  TIP3      OH2           -39.3942703985       -8.4676757466       17.2582753365  SOLV      7753            0.0000000000
     23372      7764  TIP3      H1            -38.4803503985       -8.3887857466       17.5316653365  SOLV      7753            0.0000000000
     23373      7764  TIP3      H2            -39.3869603985       -9.1547157466       16.5918353365  SOLV      7753            0.0000000000
     23374      7765  TIP3      OH2           -22.3268103985       -4.1844857466       27.1207653365  SOLV      7754            0.0000000000
     23375      7765  TIP3      H1            -22.3481403985       -3.9996457466       28.0597053365  SOLV      7754            0.0000000000
     23376      7765  TIP3      H2            -21.6361903985       -3.6160857466       26.7799053365  SOLV      7754            0.0000000000
     23377      7766  TIP3      OH2           -23.0118203985      -10.5711957466       20.1949553365  SOLV      7755            0.0000000000
     23378      7766  TIP3      H1            -22.1616803985      -10.1501057466       20.3221153365  SOLV      7755            0.0000000000
     23379      7766  TIP3      H2            -23.0063103985      -11.3111857466       20.8020953365  SOLV      7755            0.0000000000
     23380      7767  TIP3      OH2           -22.6172603985      -12.5174557466       22.0185253365  SOLV      7756            0.0000000000
     23381      7767  TIP3      H1            -23.3438003985      -12.9971957466       22.4162853365  SOLV      7756            0.0000000000
     23382      7767  TIP3      H2            -22.0359303985      -12.3119857466       22.7506853365  SOLV      7756            0.0000000000
     23383      7768  TIP3      OH2           -22.8581403985       -9.7327057466       26.9662853365  SOLV      7757            0.0000000000
     23384      7768  TIP3      H1            -22.0247203985      -10.1107057466       26.6856453365  SOLV      7757            0.0000000000
     23385      7768  TIP3      H2            -22.7461103985       -8.7895857466       26.8471953365  SOLV      7757            0.0000000000
     23386      7769  TIP3      OH2           -22.3489503985      -12.6166057466       18.4096553365  SOLV      7758            0.0000000000
     23387      7769  TIP3      H1            -22.8708403985      -12.2601957466       17.6907453365  SOLV      7758            0.0000000000
     23388      7769  TIP3      H2            -22.3820303985      -11.9418257466       19.0877453365  SOLV      7758            0.0000000000
     23389      7770  TIP3      OH2           -24.0000503985      -15.3770457466       16.9603653365  SOLV      7759            0.0000000000
     23390      7770  TIP3      H1            -23.9036103985      -14.7103457466       16.2803353365  SOLV      7759            0.0000000000
     23391      7770  TIP3      H2            -24.1400903985      -16.1924157466       16.4789153365  SOLV      7759            0.0000000000
     23392      7771  TIP3      OH2           -24.8305803985      -13.9968057466       22.5813953365  SOLV      7760            0.0000000000
     23393      7771  TIP3      H1            -24.9807003985      -14.9419457466       22.5611753365  SOLV      7760            0.0000000000
     23394      7771  TIP3      H2            -25.1841303985      -13.7156657466       23.4253053365  SOLV      7760            0.0000000000
     23395      7772  TIP3      OH2           -24.7526703985      -17.9690657466       16.0779153365  SOLV      7761            0.0000000000
     23396      7772  TIP3      H1            -24.1420903985      -18.3403857466       16.7147353365  SOLV      7761            0.0000000000
     23397      7772  TIP3      H2            -25.5895203985      -18.3903757466       16.2739153365  SOLV      7761            0.0000000000
     23398      7773  TIP3      OH2           -25.1201003985      -16.4142257466       21.0439053365  SOLV      7762            0.0000000000
     23399      7773  TIP3      H1            -24.8403903985      -17.3211857466       21.1680753365  SOLV      7762            0.0000000000
     23400      7773  TIP3      H2            -24.3609303985      -15.9800757466       20.6548253365  SOLV      7762            0.0000000000
     23401      7774  TIP3      OH2           -24.5066203985      -19.1512957466       21.0921053365  SOLV      7763            0.0000000000
     23402      7774  TIP3      H1            -24.3241203985      -19.6001457466       21.9176053365  SOLV      7763            0.0000000000
     23403      7774  TIP3      H2            -25.1063303985      -19.7358557466       20.6285653365  SOLV      7763            0.0000000000
     23404      7775  TIP3      OH2           -22.6400003985      -19.0834857466       17.6201353365  SOLV      7764            0.0000000000
     23405      7775  TIP3      H1            -22.2277403985      -19.8049157466       17.1449353365  SOLV      7764            0.0000000000
     23406      7775  TIP3      H2            -21.9583503985      -18.4140257466       17.6785653365  SOLV      7764            0.0000000000
     23407      7776  TIP3      OH2           -25.5882103985       -4.0945457466       22.6929453365  SOLV      7765            0.0000000000
     23408      7776  TIP3      H1            -24.9359203985       -4.4423357466       22.0848553365  SOLV      7765            0.0000000000
     23409      7776  TIP3      H2            -25.0778303985       -3.6062257466       23.3389153365  SOLV      7765            0.0000000000
     23410      7777  TIP3      OH2           -25.7378603985       -2.9987457466       28.9870953365  SOLV      7766            0.0000000000
     23411      7777  TIP3      H1            -25.9196603985       -2.0828557466       28.7765853365  SOLV      7766            0.0000000000
     23412      7777  TIP3      H2            -25.5610803985       -3.4090357466       28.1405553365  SOLV      7766            0.0000000000
     23413      7778  TIP3      OH2           -23.3760003985      -20.2215157466       23.5460653365  SOLV      7767            0.0000000000
     23414      7778  TIP3      H1            -22.7642503985      -20.7359457466       23.0194253365  SOLV      7767            0.0000000000
     23415      7778  TIP3      H2            -22.9936603985      -19.3443057466       23.5695053365  SOLV      7767            0.0000000000
     23416      7779  TIP3      OH2           -26.4296503985      -20.8512857466       20.0772353365  SOLV      7768            0.0000000000
     23417      7779  TIP3      H1            -27.1325403985      -20.2363657466       19.8673753365  SOLV      7768            0.0000000000
     23418      7779  TIP3      H2            -26.8745103985      -21.6886157466       20.2083253365  SOLV      7768            0.0000000000
     23419      7780  TIP3      OH2           -39.1817203985       -5.0877257466       19.6233753365  SOLV      7769            0.0000000000
     23420      7780  TIP3      H1            -39.8667303985       -5.1258357466       18.9558853365  SOLV      7769            0.0000000000
     23421      7780  TIP3      H2            -39.1780003985       -4.1749657466       19.9115853365  SOLV      7769            0.0000000000
     23422      7781  TIP3      OH2           -30.3173703985       -3.8782357466       18.0209953365  SOLV      7770            0.0000000000
     23423      7781  TIP3      H1            -29.4513503985       -3.5114957466       17.8428153365  SOLV      7770            0.0000000000
     23424      7781  TIP3      H2            -30.5640903985       -4.3174357466       17.2070753365  SOLV      7770            0.0000000000
     23425      7782  TIP3      OH2           -23.6084103985       -4.3152057466       20.7001053365  SOLV      7771            0.0000000000
     23426      7782  TIP3      H1            -23.8027003985       -5.0629957466       20.1350653365  SOLV      7771            0.0000000000
     23427      7782  TIP3      H2            -23.6474003985       -3.5571957466       20.1168953365  SOLV      7771            0.0000000000
     23428      7783  TIP3      OH2           -37.3636003985       -4.1676457466       16.6485853365  SOLV      7772            0.0000000000
     23429      7783  TIP3      H1            -37.6311403985       -3.8813557466       17.5218953365  SOLV      7772            0.0000000000
     23430      7783  TIP3      H2            -36.5923403985       -4.7137257466       16.8008353365  SOLV      7772            0.0000000000
     23431      7784  TIP3      OH2            -9.9847503985      -11.6775257466       22.8810053365  SOLV      7773            0.0000000000
     23432      7784  TIP3      H1             -9.8956403985      -10.7337057466       22.7487153365  SOLV      7773            0.0000000000
     23433      7784  TIP3      H2            -10.6229903985      -11.9528857466       22.2229453365  SOLV      7773            0.0000000000
     23434      7785  TIP3      OH2           -11.0516203985      -12.4224557466       26.2998253365  SOLV      7774            0.0000000000
     23435      7785  TIP3      H1            -11.0898703985      -13.0688257466       27.0047853365  SOLV      7774            0.0000000000
     23436      7785  TIP3      H2            -11.3739703985      -12.8890157466       25.5286953365  SOLV      7774            0.0000000000
     23437      7786  TIP3      OH2           -18.6831203985      -12.8082457466       27.8928153365  SOLV      7775            0.0000000000
     23438      7786  TIP3      H1            -18.6419103985      -13.4339157466       28.6160553365  SOLV      7775            0.0000000000
     23439      7786  TIP3      H2            -17.9803503985      -12.1843857466       28.0748553365  SOLV      7775            0.0000000000
     23440      7787  TIP3      OH2            -7.3456003985       -9.4834157466       24.6013353365  SOLV      7776            0.0000000000
     23441      7787  TIP3      H1             -7.7863303985      -10.2038157466       25.0518953365  SOLV      7776            0.0000000000
     23442      7787  TIP3      H2             -7.3586303985       -8.7626957466       25.2311053365  SOLV      7776            0.0000000000
     23443      7788  TIP3      OH2           -17.7598103985       -8.3583557466       26.4277253365  SOLV      7777            0.0000000000
     23444      7788  TIP3      H1            -18.1292903985       -9.1603057466       26.0581553365  SOLV      7777            0.0000000000
     23445      7788  TIP3      H2            -16.8187003985       -8.5268657466       26.4740653365  SOLV      7777            0.0000000000
     23446      7789  TIP3      OH2           -21.1497603985      -14.6980957466       21.8206053365  SOLV      7778            0.0000000000
     23447      7789  TIP3      H1            -21.5974203985      -13.8522257466       21.8022553365  SOLV      7778            0.0000000000
     23448      7789  TIP3      H2            -21.7106403985      -15.2776757466       21.3051153365  SOLV      7778            0.0000000000
     23449      7790  TIP3      OH2           -20.4391503985      -12.5361357466       23.9464053365  SOLV      7779            0.0000000000
     23450      7790  TIP3      H1            -20.2258003985      -13.3059757466       24.4737053365  SOLV      7779            0.0000000000
     23451      7790  TIP3      H2            -19.7013903985      -12.4464657466       23.3431653365  SOLV      7779            0.0000000000
     23452      7791  TIP3      OH2           -10.2340503985       -4.3792457466       24.8133753365  SOLV      7780            0.0000000000
     23453      7791  TIP3      H1             -9.6144103985       -5.0557757466       24.5402953365  SOLV      7780            0.0000000000
     23454      7791  TIP3      H2            -10.4423103985       -4.5971657466       25.7218653365  SOLV      7780            0.0000000000
     23455      7792  TIP3      OH2           -12.6621803985       -9.9903157466       26.7059253365  SOLV      7781            0.0000000000
     23456      7792  TIP3      H1            -12.3583903985      -10.6761757466       26.1113353365  SOLV      7781            0.0000000000
     23457      7792  TIP3      H2            -11.9407803985       -9.8714457466       27.3237253365  SOLV      7781            0.0000000000
     23458      7793  TIP3      OH2            -3.9992003985      -18.3887857466       27.5665453365  SOLV      7782            0.0000000000
     23459      7793  TIP3      H1             -3.9499803985      -17.7786657466       28.3024553365  SOLV      7782            0.0000000000
     23460      7793  TIP3      H2             -3.5736903985      -17.9276957466       26.8436553365  SOLV      7782            0.0000000000
     23461      7794  TIP3      OH2            -9.5214803985      -15.5960757466       27.0334053365  SOLV      7783            0.0000000000
     23462      7794  TIP3      H1             -9.3788903985      -16.5423757466       27.0535653365  SOLV      7783            0.0000000000
     23463      7794  TIP3      H2             -9.6275803985      -15.3890957466       26.1048953365  SOLV      7783            0.0000000000
     23464      7795  TIP3      OH2           -16.3666503985      -17.4944357466       24.3058853365  SOLV      7784            0.0000000000
     23465      7795  TIP3      H1            -16.3235403985      -16.6345857466       23.8875153365  SOLV      7784            0.0000000000
     23466      7795  TIP3      H2            -16.8242403985      -18.0469657466       23.6722053365  SOLV      7784            0.0000000000
     23467      7796  TIP3      OH2            -8.6443803985      -17.3638757466       22.7067153365  SOLV      7785            0.0000000000
     23468      7796  TIP3      H1             -7.9979503985      -17.6925557466       23.3314753365  SOLV      7785            0.0000000000
     23469      7796  TIP3      H2             -8.1344403985      -16.8459757466       22.0838553365  SOLV      7785            0.0000000000
     23470      7797  TIP3      OH2           -19.7465003985      -15.0978557466       25.0680253365  SOLV      7786            0.0000000000
     23471      7797  TIP3      H1            -19.0928403985      -15.6476857466       25.5000353365  SOLV      7786            0.0000000000
     23472      7797  TIP3      H2            -19.7225703985      -15.3719557466       24.1512253365  SOLV      7786            0.0000000000
     23473      7798  TIP3      OH2           -14.5900503985      -13.5477257466       24.2831753365  SOLV      7787            0.0000000000
     23474      7798  TIP3      H1            -13.9739503985      -14.0741857466       24.7925753365  SOLV      7787            0.0000000000
     23475      7798  TIP3      H2            -15.1761703985      -14.1878557466       23.8795353365  SOLV      7787            0.0000000000
     23476      7799  TIP3      OH2            -3.6077403985      -16.9108657466       29.8025253365  SOLV      7788            0.0000000000
     23477      7799  TIP3      H1             -4.2962803985      -16.2527957466       29.7071853365  SOLV      7788            0.0000000000
     23478      7799  TIP3      H2             -3.5922803985      -17.1080757466       30.7390653365  SOLV      7788            0.0000000000
     23479      7800  TIP3      OH2           -10.1874803985       -9.0764857466       21.9238753365  SOLV      7789            0.0000000000
     23480      7800  TIP3      H1            -10.4829703985       -9.3992557466       21.0725653365  SOLV      7789            0.0000000000
     23481      7800  TIP3      H2            -10.5117003985       -8.1768157466       21.9651353365  SOLV      7789            0.0000000000
     23482      7801  TIP3      OH2           -14.9873203985      -10.9010257466       28.6673353365  SOLV      7790            0.0000000000
     23483      7801  TIP3      H1            -15.7274103985      -10.3028757466       28.7708553365  SOLV      7790            0.0000000000
     23484      7801  TIP3      H2            -14.2733703985      -10.3470657466       28.3516953365  SOLV      7790            0.0000000000
     23485      7802  TIP3      OH2            -6.8805403985      -18.0729457466       24.6873053365  SOLV      7791            0.0000000000
     23486      7802  TIP3      H1             -7.0957403985      -18.8386057466       25.2199053365  SOLV      7791            0.0000000000
     23487      7802  TIP3      H2             -6.2248003985      -17.6004857466       25.2001553365  SOLV      7791            0.0000000000
     23488      7803  TIP3      OH2           -17.9627303985      -16.6844157466       26.3321853365  SOLV      7792            0.0000000000
     23489      7803  TIP3      H1            -17.3491003985      -16.0516557466       26.7054253365  SOLV      7792            0.0000000000
     23490      7803  TIP3      H2            -17.4506603985      -17.1569157466       25.6758753365  SOLV      7792            0.0000000000
     23491      7804  TIP3      OH2           -16.5798903985       -8.9367257466       29.4544853365  SOLV      7793            0.0000000000
     23492      7804  TIP3      H1            -16.5851303985       -8.0573757466       29.0764153365  SOLV      7793            0.0000000000
     23493      7804  TIP3      H2            -17.4334803985       -9.0203157466       29.8794753365  SOLV      7793            0.0000000000
     23494      7805  TIP3      OH2           -20.4588003985       -9.2659357466       20.2364153365  SOLV      7794            0.0000000000
     23495      7805  TIP3      H1            -20.7307103985       -9.0368357466       19.3477053365  SOLV      7794            0.0000000000
     23496      7805  TIP3      H2            -20.4132303985       -8.4280557466       20.6969453365  SOLV      7794            0.0000000000
     23497      7806  TIP3      OH2            -6.8338303985       -7.6443457466       26.9492653365  SOLV      7795            0.0000000000
     23498      7806  TIP3      H1             -7.7754603985       -7.5859557466       27.1109553365  SOLV      7795            0.0000000000
     23499      7806  TIP3      H2             -6.5572203985       -6.7382957466       26.8122353365  SOLV      7795            0.0000000000
     23500      7807  TIP3      OH2            -6.5331303985      -19.3578157466       28.3666553365  SOLV      7796            0.0000000000
     23501      7807  TIP3      H1             -7.2692103985      -18.7471057466       28.3287853365  SOLV      7796            0.0000000000
     23502      7807  TIP3      H2             -5.8497303985      -18.9429157466       27.8402953365  SOLV      7796            0.0000000000
     23503      7808  TIP3      OH2           -13.5299903985      -21.2710857466       25.8324553365  SOLV      7797            0.0000000000
     23504      7808  TIP3      H1            -13.6475703985      -22.2194857466       25.7782853365  SOLV      7797            0.0000000000
     23505      7808  TIP3      H2            -14.3849803985      -20.9384757466       26.1055653365  SOLV      7797            0.0000000000
     23506      7809  TIP3      OH2            -8.5817103985       -5.8629957466       23.5744253365  SOLV      7798            0.0000000000
     23507      7809  TIP3      H1             -8.1564803985       -6.5702057466       23.0893853365  SOLV      7798            0.0000000000
     23508      7809  TIP3      H2             -8.2647103985       -5.0617257466       23.1576453365  SOLV      7798            0.0000000000
     23509      7810  TIP3      OH2            -7.4220603985       -7.9621457466       22.0830853365  SOLV      7799            0.0000000000
     23510      7810  TIP3      H1             -7.6795803985       -8.6521357466       21.4716753365  SOLV      7799            0.0000000000
     23511      7810  TIP3      H2             -7.3509803985       -8.4050257466       22.9286753365  SOLV      7799            0.0000000000
     23512      7811  TIP3      OH2            -5.7360403985       -9.3954757466       30.5604353365  SOLV      7800            0.0000000000
     23513      7811  TIP3      H1             -5.5964103985       -9.9872257466       29.8211353365  SOLV      7800            0.0000000000
     23514      7811  TIP3      H2             -5.5687603985       -8.5228857466       30.2043153365  SOLV      7800            0.0000000000
     23515      7812  TIP3      OH2           -11.2635003985      -12.4335257466       20.3330353365  SOLV      7801            0.0000000000
     23516      7812  TIP3      H1            -11.9749503985      -11.8985557466       19.9810853365  SOLV      7801            0.0000000000
     23517      7812  TIP3      H2            -10.5725403985      -12.3783157466       19.6729253365  SOLV      7801            0.0000000000
     23518      7813  TIP3      OH2           -11.2095803985      -13.9760957466       17.3715353365  SOLV      7802            0.0000000000
     23519      7813  TIP3      H1            -10.5085903985      -13.9534057466       18.0229353365  SOLV      7802            0.0000000000
     23520      7813  TIP3      H2            -10.9072903985      -14.6041257466       16.7154653365  SOLV      7802            0.0000000000
     23521      7814  TIP3      OH2            -3.8941103985      -13.0556757466       28.6264753365  SOLV      7803            0.0000000000
     23522      7814  TIP3      H1             -4.5467003985      -12.3611157466       28.7155653365  SOLV      7803            0.0000000000
     23523      7814  TIP3      H2             -3.4290803985      -12.8455857466       27.8166353365  SOLV      7803            0.0000000000
     23524      7815  TIP3      OH2            -7.8577303985      -12.2241957466       21.2846253365  SOLV      7804            0.0000000000
     23525      7815  TIP3      H1             -8.5896303985      -11.9958257466       21.8576853365  SOLV      7804            0.0000000000
     23526      7815  TIP3      H2             -7.4105103985      -12.9379257466       21.7393753365  SOLV      7804            0.0000000000
     23527      7816  TIP3      OH2            -7.9603803985      -14.0499357466       30.3523253365  SOLV      7805            0.0000000000
     23528      7816  TIP3      H1             -7.8804703985      -13.2864957466       30.9241753365  SOLV      7805            0.0000000000
     23529      7816  TIP3      H2             -8.5616103985      -13.7706957466       29.6618353365  SOLV      7805            0.0000000000
     23530      7817  TIP3      OH2           -16.2123603985      -11.5935757466       23.1671253365  SOLV      7806            0.0000000000
     23531      7817  TIP3      H1            -16.5428403985      -11.9642357466       22.3488253365  SOLV      7806            0.0000000000
     23532      7817  TIP3      H2            -15.6239503985      -12.2641757466       23.5139553365  SOLV      7806            0.0000000000
     23533      7818  TIP3      OH2           -14.8456103985       -8.1655157466       25.8483453365  SOLV      7807            0.0000000000
     23534      7818  TIP3      H1            -14.9404803985       -8.7442057466       25.0918053365  SOLV      7807            0.0000000000
     23535      7818  TIP3      H2            -14.1162503985       -8.5369457466       26.3446253365  SOLV      7807            0.0000000000
     23536      7819  TIP3      OH2           -15.8458103985      -12.8250157466       26.8006253365  SOLV      7808            0.0000000000
     23537      7819  TIP3      H1            -15.2805603985      -12.7035957466       26.0377453365  SOLV      7808            0.0000000000
     23538      7819  TIP3      H2            -15.5269203985      -12.1875157466       27.4394753365  SOLV      7808            0.0000000000
     23539      7820  TIP3      OH2            -9.5365903985       -7.3218257466       27.5346753365  SOLV      7809            0.0000000000
     23540      7820  TIP3      H1             -9.7769303985       -6.6595157466       28.1825953365  SOLV      7809            0.0000000000
     23541      7820  TIP3      H2             -9.7347703985       -8.1563057466       27.9596353365  SOLV      7809            0.0000000000
     23542      7821  TIP3      OH2           -14.9657403985       -8.4257457466       31.5178153365  SOLV      7810            0.0000000000
     23543      7821  TIP3      H1            -15.2769903985       -7.6434257466       31.9731353365  SOLV      7810            0.0000000000
     23544      7821  TIP3      H2            -15.6157203985       -8.5788357466       30.8320153365  SOLV      7810            0.0000000000
     23545      7822  TIP3      OH2            -8.9867803985      -13.0619057466       18.9697453365  SOLV      7811            0.0000000000
     23546      7822  TIP3      H1             -8.4072303985      -12.9118757466       19.7166353365  SOLV      7811            0.0000000000
     23547      7822  TIP3      H2             -8.5727803985      -12.5911657466       18.2463853365  SOLV      7811            0.0000000000
     23548      7823  TIP3      OH2           -11.2602903985       -6.3250557466       22.4050553365  SOLV      7812            0.0000000000
     23549      7823  TIP3      H1            -10.7865303985       -6.0294257466       23.1824753365  SOLV      7812            0.0000000000
     23550      7823  TIP3      H2            -11.8233603985       -5.5868957466       22.1720153365  SOLV      7812            0.0000000000
     23551      7824  TIP3      OH2           -16.7261503985       -6.3542457466       32.2811953365  SOLV      7813            0.0000000000
     23552      7824  TIP3      H1            -16.7186203985       -6.4902757466       31.3337453365  SOLV      7813            0.0000000000
     23553      7824  TIP3      H2            -17.6421103985       -6.4714357466       32.5331953365  SOLV      7813            0.0000000000
     23554      7825  TIP3      OH2            -5.2879403985      -21.3118657466       18.7827153365  SOLV      7814            0.0000000000
     23555      7825  TIP3      H1             -6.1878703985      -21.1729657466       19.0777753365  SOLV      7814            0.0000000000
     23556      7825  TIP3      H2             -5.0361003985      -20.4804057466       18.3808853365  SOLV      7814            0.0000000000
     23557      7826  TIP3      OH2           -17.2220903985      -12.5241457466       20.7564053365  SOLV      7815            0.0000000000
     23558      7826  TIP3      H1            -17.5139603985      -11.7559757466       20.2655353365  SOLV      7815            0.0000000000
     23559      7826  TIP3      H2            -17.8965703985      -13.1835257466       20.5935453365  SOLV      7815            0.0000000000
     23560      7827  TIP3      OH2            -4.0988003985       -6.9456257466       17.1591053365  SOLV      7816            0.0000000000
     23561      7827  TIP3      H1             -4.0254503985       -6.0066057466       17.3296353365  SOLV      7816            0.0000000000
     23562      7827  TIP3      H2             -3.1932903985       -7.2507657466       17.1028353365  SOLV      7816            0.0000000000
     23563      7828  TIP3      OH2           -21.3788103985       -7.3808457466       26.4554053365  SOLV      7817            0.0000000000
     23564      7828  TIP3      H1            -20.4327503985       -7.5251457466       26.4363553365  SOLV      7817            0.0000000000
     23565      7828  TIP3      H2            -21.4911803985       -6.5965657466       26.9925253365  SOLV      7817            0.0000000000
     23566      7829  TIP3      OH2            -3.1809603985       -6.7148757466       32.1377753365  SOLV      7818            0.0000000000
     23567      7829  TIP3      H1             -3.2302803985       -7.6700657466       32.1005353365  SOLV      7818            0.0000000000
     23568      7829  TIP3      H2             -4.0077303985       -6.4473457466       32.5391553365  SOLV      7818            0.0000000000
     23569      7830  TIP3      OH2           -12.2025603985       -7.1409557466       31.0139153365  SOLV      7819            0.0000000000
     23570      7830  TIP3      H1            -12.1151003985       -6.3144957466       31.4888253365  SOLV      7819            0.0000000000
     23571      7830  TIP3      H2            -13.0660503985       -7.4705757466       31.2628453365  SOLV      7819            0.0000000000
     23572      7831  TIP3      OH2           -11.7879803985       -3.3685857466       20.8199753365  SOLV      7820            0.0000000000
     23573      7831  TIP3      H1            -11.8633803985       -3.4898657466       19.8734953365  SOLV      7820            0.0000000000
     23574      7831  TIP3      H2            -11.7551103985       -2.4193157466       20.9384353365  SOLV      7820            0.0000000000
     23575      7832  TIP3      OH2           -18.1346003985       -4.5798857466       22.6008753365  SOLV      7821            0.0000000000
     23576      7832  TIP3      H1            -17.9825603985       -4.9278457466       23.4795253365  SOLV      7821            0.0000000000
     23577      7832  TIP3      H2            -18.9855603985       -4.9361557466       22.3455953365  SOLV      7821            0.0000000000
     23578      7833  TIP3      OH2            -8.6863803985       -4.2145657466       17.8222153365  SOLV      7822            0.0000000000
     23579      7833  TIP3      H1             -8.3115403985       -4.9589557466       17.3514753365  SOLV      7822            0.0000000000
     23580      7833  TIP3      H2             -8.6820103985       -4.4845057466       18.7405453365  SOLV      7822            0.0000000000
     23581      7834  TIP3      OH2            -9.0175703985       -4.2888557466       20.5714353365  SOLV      7823            0.0000000000
     23582      7834  TIP3      H1             -9.9525903985       -4.1886657466       20.7501353365  SOLV      7823            0.0000000000
     23583      7834  TIP3      H2             -8.7373803985       -4.9982557466       21.1497553365  SOLV      7823            0.0000000000
     23584      7835  TIP3      OH2            -6.0289803985      -15.2216257466       32.6179953365  SOLV      7824            0.0000000000
     23585      7835  TIP3      H1             -6.4363003985      -14.7410657466       31.8973253365  SOLV      7824            0.0000000000
     23586      7835  TIP3      H2             -5.9884103985      -16.1270257466       32.3100753365  SOLV      7824            0.0000000000
     23587      7836  TIP3      OH2           -16.2612303985      -20.3676357466       26.6100853365  SOLV      7825            0.0000000000
     23588      7836  TIP3      H1            -17.1228603985      -20.4548157466       26.2023753365  SOLV      7825            0.0000000000
     23589      7836  TIP3      H2            -16.2836603985      -19.5116257466       27.0378453365  SOLV      7825            0.0000000000
     23590      7837  TIP3      OH2            -8.2719603985      -16.8900757466       30.8382353365  SOLV      7826            0.0000000000
     23591      7837  TIP3      H1             -8.7860103985      -17.0158557466       31.6358353365  SOLV      7826            0.0000000000
     23592      7837  TIP3      H2             -8.4274903985      -15.9777657466       30.5938553365  SOLV      7826            0.0000000000
     23593      7838  TIP3      OH2            -7.5094703985      -12.0290757466       16.5995353365  SOLV      7827            0.0000000000
     23594      7838  TIP3      H1             -7.4673903985      -12.2516857466       15.6695353365  SOLV      7827            0.0000000000
     23595      7838  TIP3      H2             -6.6602603985      -11.6303657466       16.7895253365  SOLV      7827            0.0000000000
     23596      7839  TIP3      OH2           -11.9367203985      -18.1532557466       17.2698653365  SOLV      7828            0.0000000000
     23597      7839  TIP3      H1            -12.1902403985      -18.1340957466       18.1926753365  SOLV      7828            0.0000000000
     23598      7839  TIP3      H2            -12.1935103985      -19.0247157466       16.9684853365  SOLV      7828            0.0000000000
     23599      7840  TIP3      OH2           -16.1702203985      -15.4021857466       27.7051053365  SOLV      7829            0.0000000000
     23600      7840  TIP3      H1            -16.8120103985      -15.4424557466       28.4141153365  SOLV      7829            0.0000000000
     23601      7840  TIP3      H2            -16.1330203985      -14.4757157466       27.4674053365  SOLV      7829            0.0000000000
     23602      7841  TIP3      OH2           -16.1733103985      -15.1811757466       22.6171053365  SOLV      7830            0.0000000000
     23603      7841  TIP3      H1            -17.0660203985      -15.5215657466       22.5584853365  SOLV      7830            0.0000000000
     23604      7841  TIP3      H2            -15.7226503985      -15.5580857466       21.8614253365  SOLV      7830            0.0000000000
     23605      7842  TIP3      OH2           -10.6377603985      -14.7651457466       21.4341853365  SOLV      7831            0.0000000000
     23606      7842  TIP3      H1            -11.0467303985      -13.9502857466       21.1426653365  SOLV      7831            0.0000000000
     23607      7842  TIP3      H2             -9.9171403985      -14.9051357466       20.8198953365  SOLV      7831            0.0000000000
     23608      7843  TIP3      OH2            -9.6329903985      -15.3191057466       24.2481553365  SOLV      7832            0.0000000000
     23609      7843  TIP3      H1             -9.8285403985      -14.7134257466       23.5332153365  SOLV      7832            0.0000000000
     23610      7843  TIP3      H2             -9.4517303985      -16.1525857466       23.8137853365  SOLV      7832            0.0000000000
     23611      7844  TIP3      OH2           -15.0544303985      -17.7076057466       16.3709053365  SOLV      7833            0.0000000000
     23612      7844  TIP3      H1            -15.4853603985      -18.1525957466       17.1006453365  SOLV      7833            0.0000000000
     23613      7844  TIP3      H2            -15.7725603985      -17.3359757466       15.8586553365  SOLV      7833            0.0000000000
     23614      7845  TIP3      OH2           -21.8120903985      -17.9656557466       23.4227753365  SOLV      7834            0.0000000000
     23615      7845  TIP3      H1            -21.1813203985      -17.9944457466       24.1421653365  SOLV      7834            0.0000000000
     23616      7845  TIP3      H2            -21.3626603985      -18.3907857466       22.6923653365  SOLV      7834            0.0000000000
     23617      7846  TIP3      OH2           -20.5378803985      -17.2194557466       18.8468153365  SOLV      7835            0.0000000000
     23618      7846  TIP3      H1            -20.0637103985      -16.6284657466       18.2619053365  SOLV      7835            0.0000000000
     23619      7846  TIP3      H2            -21.2552403985      -16.6891657466       19.1938253365  SOLV      7835            0.0000000000
     23620      7847  TIP3      OH2           -10.3690703985      -13.6809757466       28.9193953365  SOLV      7836            0.0000000000
     23621      7847  TIP3      H1            -10.0455903985      -14.3120057466       28.2764453365  SOLV      7836            0.0000000000
     23622      7847  TIP3      H2            -10.8091403985      -14.2157557466       29.5801353365  SOLV      7836            0.0000000000
     23623      7848  TIP3      OH2           -13.5917803985      -17.7534257466       23.7035153365  SOLV      7837            0.0000000000
     23624      7848  TIP3      H1            -14.5026703985      -17.6967457466       23.9921153365  SOLV      7837            0.0000000000
     23625      7848  TIP3      H2            -13.0864903985      -17.8138757466       24.5142353365  SOLV      7837            0.0000000000
     23626      7849  TIP3      OH2           -18.7634403985      -16.1247957466       22.5302753365  SOLV      7838            0.0000000000
     23627      7849  TIP3      H1            -19.6526403985      -16.0252457466       22.1902353365  SOLV      7838            0.0000000000
     23628      7849  TIP3      H2            -18.4669503985      -16.9664957466       22.1840653365  SOLV      7838            0.0000000000
     23629      7850  TIP3      OH2           -15.1102603985      -16.1245357466       20.1867353365  SOLV      7839            0.0000000000
     23630      7850  TIP3      H1            -14.1787103985      -15.9955357466       20.3650453365  SOLV      7839            0.0000000000
     23631      7850  TIP3      H2            -15.3252303985      -15.4551057466       19.5372053365  SOLV      7839            0.0000000000
     23632      7851  TIP3      OH2            -9.1865903985      -18.5187957466       26.9676953365  SOLV      7840            0.0000000000
     23633      7851  TIP3      H1             -9.8634303985      -18.3874857466       27.6316653365  SOLV      7840            0.0000000000
     23634      7851  TIP3      H2             -9.6721003985      -18.6738457466       26.1574653365  SOLV      7840            0.0000000000
     23635      7852  TIP3      OH2           -16.4362403985      -14.9303157466       17.7533453365  SOLV      7841            0.0000000000
     23636      7852  TIP3      H1            -16.9787303985      -15.3099357466       17.0621053365  SOLV      7841            0.0000000000
     23637      7852  TIP3      H2            -15.6027503985      -14.7358457466       17.3247553365  SOLV      7841            0.0000000000
     23638      7853  TIP3      OH2            -5.8990803985       -2.8472557466       33.2444553365  SOLV      7842            0.0000000000
     23639      7853  TIP3      H1             -5.6992103985       -2.4230657466       32.4099853365  SOLV      7842            0.0000000000
     23640      7853  TIP3      H2             -5.2437103985       -2.5034357466       33.8514953365  SOLV      7842            0.0000000000
     23641      7854  TIP3      OH2           -12.2718103985      -14.9661257466       25.5904753365  SOLV      7843            0.0000000000
     23642      7854  TIP3      H1            -11.7074703985      -15.5124657466       25.0434353365  SOLV      7843            0.0000000000
     23643      7854  TIP3      H2            -12.4194703985      -15.4879357466       26.3792353365  SOLV      7843            0.0000000000
     23644      7855  TIP3      OH2           -17.2698403985      -18.8295157466       22.0089553365  SOLV      7844            0.0000000000
     23645      7855  TIP3      H1            -17.5868903985      -19.7319857466       21.9734953365  SOLV      7844            0.0000000000
     23646      7855  TIP3      H2            -16.4884303985      -18.8277757466       21.4561153365  SOLV      7844            0.0000000000
     23647      7856  TIP3      OH2           -13.6452203985      -16.5775157466       28.0045153365  SOLV      7845            0.0000000000
     23648      7856  TIP3      H1            -14.4806903985      -16.1235657466       28.1147553365  SOLV      7845            0.0000000000
     23649      7856  TIP3      H2            -13.1211603985      -16.3016657466       28.7565053365  SOLV      7845            0.0000000000
     23650      7857  TIP3      OH2           -13.1009603985      -10.3647457466       19.6891553365  SOLV      7846            0.0000000000
     23651      7857  TIP3      H1            -13.8458603985      -10.8722157466       19.3669453365  SOLV      7846            0.0000000000
     23652      7857  TIP3      H2            -13.2352403985      -10.3159457466       20.6356353365  SOLV      7846            0.0000000000
     23653      7858  TIP3      OH2            -5.9510703985      -11.2319257466       28.4759153365  SOLV      7847            0.0000000000
     23654      7858  TIP3      H1             -5.3091903985      -10.7752957466       27.9321353365  SOLV      7847            0.0000000000
     23655      7858  TIP3      H2             -6.7813803985      -11.1186857466       28.0133253365  SOLV      7847            0.0000000000
     23656      7859  TIP3      OH2            -9.2032803985      -17.5507557466       17.8884153365  SOLV      7848            0.0000000000
     23657      7859  TIP3      H1            -10.1418603985      -17.4391957466       17.7372953365  SOLV      7848            0.0000000000
     23658      7859  TIP3      H2             -8.9060703985      -16.6940657466       18.1949853365  SOLV      7848            0.0000000000
     23659      7860  TIP3      OH2           -11.5817503985      -10.1804157466       30.9260653365  SOLV      7849            0.0000000000
     23660      7860  TIP3      H1            -11.9271403985      -10.5621757466       31.7330253365  SOLV      7849            0.0000000000
     23661      7860  TIP3      H2            -11.7817403985       -9.2470557466       30.9973553365  SOLV      7849            0.0000000000
     23662      7861  TIP3      OH2            -8.4849303985      -15.6834857466       19.5491553365  SOLV      7850            0.0000000000
     23663      7861  TIP3      H1             -7.5930303985      -15.8209857466       19.8682753365  SOLV      7850            0.0000000000
     23664      7861  TIP3      H2             -8.4285703985      -14.8928757466       19.0125053365  SOLV      7850            0.0000000000
     23665      7862  TIP3      OH2           -17.9761303985      -11.0697457466       25.4589453365  SOLV      7851            0.0000000000
     23666      7862  TIP3      H1            -17.2314103985      -11.0721757466       24.8575953365  SOLV      7851            0.0000000000
     23667      7862  TIP3      H2            -17.8984703985      -11.8933657466       25.9404553365  SOLV      7851            0.0000000000
     23668      7863  TIP3      OH2           -10.9755503985       -8.9063157466       18.7146153365  SOLV      7852            0.0000000000
     23669      7863  TIP3      H1            -11.2707103985       -8.0795257466       19.0960953365  SOLV      7852            0.0000000000
     23670      7863  TIP3      H2            -11.6785503985       -9.5256257466       18.9107553365  SOLV      7852            0.0000000000
     23671      7864  TIP3      OH2            -9.3313903985       -7.7188657466       30.8765653365  SOLV      7853            0.0000000000
     23672      7864  TIP3      H1            -10.2319603985       -7.5356057466       30.6089553365  SOLV      7853            0.0000000000
     23673      7864  TIP3      H2             -9.2972803985       -7.4599357466       31.7974453365  SOLV      7853            0.0000000000
     23674      7865  TIP3      OH2            -3.6000603985      -15.4740757466       19.2438253365  SOLV      7854            0.0000000000
     23675      7865  TIP3      H1             -4.1544303985      -15.8702757466       18.5715753365  SOLV      7854            0.0000000000
     23676      7865  TIP3      H2             -3.4997003985      -14.5635557466       18.9661553365  SOLV      7854            0.0000000000
     23677      7866  TIP3      OH2            -3.6368603985       -9.6739057466       32.0809753365  SOLV      7855            0.0000000000
     23678      7866  TIP3      H1             -4.4880103985       -9.4355257466       31.7136153365  SOLV      7855            0.0000000000
     23679      7866  TIP3      H2             -3.0465203985       -9.6905857466       31.3276853365  SOLV      7855            0.0000000000
     23680      7867  TIP3      OH2            -5.3048903985       -6.6880357466       19.7090353365  SOLV      7856            0.0000000000
     23681      7867  TIP3      H1             -5.6777803985       -7.5136557466       20.0180953365  SOLV      7856            0.0000000000
     23682      7867  TIP3      H2             -5.0275403985       -6.8710957466       18.8113753365  SOLV      7856            0.0000000000
     23683      7868  TIP3      OH2            -8.1445003985      -11.8800857466       26.7302253365  SOLV      7857            0.0000000000
     23684      7868  TIP3      H1             -9.0728103985      -12.1118957466       26.7031553365  SOLV      7857            0.0000000000
     23685      7868  TIP3      H2             -7.6933903985      -12.6571057466       26.4001053365  SOLV      7857            0.0000000000
     23686      7869  TIP3      OH2           -15.6011903985       -7.5519257466       22.8630953365  SOLV      7858            0.0000000000
     23687      7869  TIP3      H1            -15.0739703985       -6.7784857466       22.6629753365  SOLV      7858            0.0000000000
     23688      7869  TIP3      H2            -16.4813403985       -7.3270057466       22.5614953365  SOLV      7858            0.0000000000
     23689      7870  TIP3      OH2           -19.8464203985      -12.6895157466       17.4503353365  SOLV      7859            0.0000000000
     23690      7870  TIP3      H1            -19.2304303985      -12.0627957466       17.8298153365  SOLV      7859            0.0000000000
     23691      7870  TIP3      H2            -20.7081603985      -12.3735357466       17.7219853365  SOLV      7859            0.0000000000
     23692      7871  TIP3      OH2           -14.1739603985       -9.8889357466       22.4395253365  SOLV      7860            0.0000000000
     23693      7871  TIP3      H1            -14.4149603985       -8.9634957466       22.4810553365  SOLV      7860            0.0000000000
     23694      7871  TIP3      H2            -14.9146003985      -10.3478057466       22.8359153365  SOLV      7860            0.0000000000
     23695      7872  TIP3      OH2           -13.6593003985       -5.7395757466       28.7546353365  SOLV      7861            0.0000000000
     23696      7872  TIP3      H1            -13.2968303985       -4.8850157466       28.5210753365  SOLV      7861            0.0000000000
     23697      7872  TIP3      H2            -13.1277803985       -6.0314157466       29.4952653365  SOLV      7861            0.0000000000
     23698      7873  TIP3      OH2           -15.4908803985       -4.8671757466       21.9847453365  SOLV      7862            0.0000000000
     23699      7873  TIP3      H1            -16.4408303985       -4.7614357466       22.0360753365  SOLV      7862            0.0000000000
     23700      7873  TIP3      H2            -15.1390703985       -4.0464357466       22.3294953365  SOLV      7862            0.0000000000
     23701      7874  TIP3      OH2           -10.1152203985       -9.6405057466       28.4551953365  SOLV      7863            0.0000000000
     23702      7874  TIP3      H1            -10.5410903985       -9.8683357466       29.2815953365  SOLV      7863            0.0000000000
     23703      7874  TIP3      H2             -9.5346403985      -10.3793257466       28.2727253365  SOLV      7863            0.0000000000
     23704      7875  TIP3      OH2            -7.9123303985       -8.7114557466       17.5290953365  SOLV      7864            0.0000000000
     23705      7875  TIP3      H1             -7.5590203985       -9.0914757466       18.3334453365  SOLV      7864            0.0000000000
     23706      7875  TIP3      H2             -8.8609803985       -8.8049757466       17.6160253365  SOLV      7864            0.0000000000
     23707      7876  TIP3      OH2            -7.4568003985       -5.0885557466       30.9246753365  SOLV      7865            0.0000000000
     23708      7876  TIP3      H1             -8.0584803985       -5.6442657466       30.4293053365  SOLV      7865            0.0000000000
     23709      7876  TIP3      H2             -7.1754303985       -4.4215757466       30.2984153365  SOLV      7865            0.0000000000
     23710      7877  TIP3      OH2            -3.4088903985       -4.2322057466       17.7301153365  SOLV      7866            0.0000000000
     23711      7877  TIP3      H1             -2.6651003985       -3.6461557466       17.5902753365  SOLV      7866            0.0000000000
     23712      7877  TIP3      H2             -4.1030803985       -3.6636257466       18.0633553365  SOLV      7866            0.0000000000
     23713      7878  TIP3      OH2            -7.0464003985      -10.0392557466       19.7558853365  SOLV      7867            0.0000000000
     23714      7878  TIP3      H1             -7.3236403985      -10.7673257466       20.3119953365  SOLV      7867            0.0000000000
     23715      7878  TIP3      H2             -6.1191003985       -9.9200557466       19.9611453365  SOLV      7867            0.0000000000
     23716      7879  TIP3      OH2           -19.6830103985       -6.0513457466       28.7668753365  SOLV      7868            0.0000000000
     23717      7879  TIP3      H1            -19.4659803985       -6.9831057466       28.7358453365  SOLV      7868            0.0000000000
     23718      7879  TIP3      H2            -19.4366603985       -5.7768457466       29.6501553365  SOLV      7868            0.0000000000
     23719      7880  TIP3      OH2           -13.8215503985       -7.5998457466       15.9760953365  SOLV      7869            0.0000000000
     23720      7880  TIP3      H1            -13.5825703985       -8.3480357466       15.4289853365  SOLV      7869            0.0000000000
     23721      7880  TIP3      H2            -14.0904203985       -7.9876757466       16.8088753365  SOLV      7869            0.0000000000
     23722      7881  TIP3      OH2           -14.8844903985       -8.0294657466       18.4323553365  SOLV      7870            0.0000000000
     23723      7881  TIP3      H1            -14.7376903985       -8.5494857466       19.2224453365  SOLV      7870            0.0000000000
     23724      7881  TIP3      H2            -14.8873203985       -7.1227057466       18.7389453365  SOLV      7870            0.0000000000
     23725      7882  TIP3      OH2           -18.4313803985      -10.7771357466       18.9428953365  SOLV      7871            0.0000000000
     23726      7882  TIP3      H1            -19.1174503985      -10.4248857466       19.5098653365  SOLV      7871            0.0000000000
     23727      7882  TIP3      H2            -17.9085903985      -10.0141757466       18.6963253365  SOLV      7871            0.0000000000
     23728      7883  TIP3      OH2           -10.5998703985      -18.1147557466       29.2217953365  SOLV      7872            0.0000000000
     23729      7883  TIP3      H1             -9.9010803985      -18.0408857466       29.8717653365  SOLV      7872            0.0000000000
     23730      7883  TIP3      H2            -10.9807303985      -18.9792557466       29.3760853365  SOLV      7872            0.0000000000
     23731      7884  TIP3      OH2            -9.8153803985      -18.4625857466       20.3190253365  SOLV      7873            0.0000000000
     23732      7884  TIP3      H1             -9.5955503985      -17.9910457466       19.5155653365  SOLV      7873            0.0000000000
     23733      7884  TIP3      H2             -9.2569803985      -18.0683257466       20.9890853365  SOLV      7873            0.0000000000
     23734      7885  TIP3      OH2           -12.1467703985       -6.3321057466       19.1817753365  SOLV      7874            0.0000000000
     23735      7885  TIP3      H1            -12.9631603985       -5.8351357466       19.2342053365  SOLV      7874            0.0000000000
     23736      7885  TIP3      H2            -11.6171403985       -5.8567557466       18.5416553365  SOLV      7874            0.0000000000
     23737      7886  TIP3      OH2           -12.6153903985      -16.7347057466       21.1538653365  SOLV      7875            0.0000000000
     23738      7886  TIP3      H1            -11.8031303985      -16.2303857466       21.2000353365  SOLV      7875            0.0000000000
     23739      7886  TIP3      H2            -12.8600903985      -16.8797357466       22.0678253365  SOLV      7875            0.0000000000
     23740      7887  TIP3      OH2           -12.0797503985      -15.7484357466       30.3385253365  SOLV      7876            0.0000000000
     23741      7887  TIP3      H1            -11.9607203985      -15.1748957466       31.0955653365  SOLV      7876            0.0000000000
     23742      7887  TIP3      H2            -11.4242903985      -16.4364957466       30.4533053365  SOLV      7876            0.0000000000
     23743      7888  TIP3      OH2           -11.7317203985      -19.6534057466       22.0919753365  SOLV      7877            0.0000000000
     23744      7888  TIP3      H1            -12.0783703985      -19.0363457466       22.7364053365  SOLV      7877            0.0000000000
     23745      7888  TIP3      H2            -11.0730303985      -19.1528357466       21.6105253365  SOLV      7877            0.0000000000
     23746      7889  TIP3      OH2           -14.8084603985       -5.2883857466       19.1634653365  SOLV      7878            0.0000000000
     23747      7889  TIP3      H1            -14.6475903985       -4.4886357466       18.6627253365  SOLV      7878            0.0000000000
     23748      7889  TIP3      H2            -15.0056803985       -4.9817857466       20.0485253365  SOLV      7878            0.0000000000
     23749      7890  TIP3      OH2           -16.0740203985      -18.5904657466       18.7792253365  SOLV      7879            0.0000000000
     23750      7890  TIP3      H1            -16.1575403985      -17.7021557466       19.1258653365  SOLV      7879            0.0000000000
     23751      7890  TIP3      H2            -15.1839903985      -18.8557957466       19.0109053365  SOLV      7879            0.0000000000
     23752      7891  TIP3      OH2            -5.8751703985      -17.8414057466       31.1734953365  SOLV      7880            0.0000000000
     23753      7891  TIP3      H1             -6.7915903985      -17.5792357466       31.0858653365  SOLV      7880            0.0000000000
     23754      7891  TIP3      H2             -5.5396703985      -17.8445057466       30.2770253365  SOLV      7880            0.0000000000
     23755      7892  TIP3      OH2            -7.2730703985      -14.0913057466       25.2692253365  SOLV      7881            0.0000000000
     23756      7892  TIP3      H1             -8.0706303985      -14.5062857466       24.9407253365  SOLV      7881            0.0000000000
     23757      7892  TIP3      H2             -6.8279603985      -14.7819357466       25.7602753365  SOLV      7881            0.0000000000
     23758      7893  TIP3      OH2           -17.8154903985       -8.1632457466       17.8396753365  SOLV      7882            0.0000000000
     23759      7893  TIP3      H1            -17.2233403985       -7.4637657466       18.1159153365  SOLV      7882            0.0000000000
     23760      7893  TIP3      H2            -17.3561903985       -8.5962957466       17.1201353365  SOLV      7882            0.0000000000
     23761      7894  TIP3      OH2           -19.4995703985      -15.4989457466       16.9556153365  SOLV      7883            0.0000000000
     23762      7894  TIP3      H1            -19.5443103985      -14.5596357466       17.1343153365  SOLV      7883            0.0000000000
     23763      7894  TIP3      H2            -20.3872503985      -15.7344557466       16.6858253365  SOLV      7883            0.0000000000
     23764      7895  TIP3      OH2            -6.1866103985       -4.8350557466       26.8915753365  SOLV      7884            0.0000000000
     23765      7895  TIP3      H1             -6.3421803985       -4.1566157466       26.2345053365  SOLV      7884            0.0000000000
     23766      7895  TIP3      H2             -5.2539703985       -4.7631257466       27.0946353365  SOLV      7884            0.0000000000
     23767      7896  TIP3      OH2           -18.6913703985      -20.7172857466       25.6287153365  SOLV      7885            0.0000000000
     23768      7896  TIP3      H1            -18.9203903985      -20.6580357466       24.7012153365  SOLV      7885            0.0000000000
     23769      7896  TIP3      H2            -19.1340303985      -21.5087357466       25.9351253365  SOLV      7885            0.0000000000
     23770      7897  TIP3      OH2           -19.7610403985       -6.7765757466       21.7892953365  SOLV      7886            0.0000000000
     23771      7897  TIP3      H1            -20.5931803985       -6.3043057466       21.8164353365  SOLV      7886            0.0000000000
     23772      7897  TIP3      H2            -19.2152103985       -6.2668157466       21.1906053365  SOLV      7886            0.0000000000
     23773      7898  TIP3      OH2           -11.7833703985       -5.7367057466       16.1146953365  SOLV      7887            0.0000000000
     23774      7898  TIP3      H1            -12.4272703985       -6.3678457466       16.4360653365  SOLV      7887            0.0000000000
     23775      7898  TIP3      H2            -11.0215403985       -6.2679057466       15.8830453365  SOLV      7887            0.0000000000
     23776      7899  TIP3      OH2            -9.2984603985       -6.8646557466       33.4686653365  SOLV      7888            0.0000000000
     23777      7899  TIP3      H1             -9.6495103985       -7.7213557466       33.7117053365  SOLV      7888            0.0000000000
     23778      7899  TIP3      H2             -8.5721403985       -6.7219857466       34.0755653365  SOLV      7888            0.0000000000
     23779      7900  TIP3      OH2            -7.1790803985       -5.9197157466       16.3484953365  SOLV      7889            0.0000000000
     23780      7900  TIP3      H1             -6.8960403985       -6.7141957466       16.8011853365  SOLV      7889            0.0000000000
     23781      7900  TIP3      H2             -6.4392903985       -5.6866157466       15.7876053365  SOLV      7889            0.0000000000
     23782      7901  TIP3      OH2           -16.2243503985      -10.0102257466       16.2059853365  SOLV      7890            0.0000000000
     23783      7901  TIP3      H1            -16.1599403985      -10.8042657466       16.7366253365  SOLV      7890            0.0000000000
     23784      7901  TIP3      H2            -15.5714303985      -10.1289457466       15.5161853365  SOLV      7890            0.0000000000
     23785      7902  TIP3      OH2           -10.8720103985       -8.9630557466       15.9417853365  SOLV      7891            0.0000000000
     23786      7902  TIP3      H1            -11.1406003985       -8.7828457466       16.8426753365  SOLV      7891            0.0000000000
     23787      7902  TIP3      H2            -11.0784503985       -9.8884357466       15.8103653365  SOLV      7891            0.0000000000
     23788      7903  TIP3      OH2            -8.1755903985      -10.4682557466       30.8893953365  SOLV      7892            0.0000000000
     23789      7903  TIP3      H1             -7.4301103985       -9.8798857466       30.7697953365  SOLV      7892            0.0000000000
     23790      7903  TIP3      H2             -8.9329103985       -9.8862857466       30.9527053365  SOLV      7892            0.0000000000
     23791      7904  TIP3      OH2           -15.0749703985      -12.0376057466       18.5117853365  SOLV      7893            0.0000000000
     23792      7904  TIP3      H1            -15.5347703985      -12.5217757466       19.1976353365  SOLV      7893            0.0000000000
     23793      7904  TIP3      H2            -14.8201003985      -12.7060657466       17.8758353365  SOLV      7893            0.0000000000
     23794      7905  TIP3      OH2           -14.0039303985      -13.7944257466       16.7741053365  SOLV      7894            0.0000000000
     23795      7905  TIP3      H1            -14.1844303985      -13.9493057466       15.8469353365  SOLV      7894            0.0000000000
     23796      7905  TIP3      H2            -13.0538803985      -13.6865557466       16.8188953365  SOLV      7894            0.0000000000
     23797      7906  TIP3      OH2            -4.6141003985      -11.4400057466       16.2199153365  SOLV      7895            0.0000000000
     23798      7906  TIP3      H1             -4.8876203985      -11.8644557466       15.4067453365  SOLV      7895            0.0000000000
     23799      7906  TIP3      H2             -4.5746903985      -10.5085557466       16.0029553365  SOLV      7895            0.0000000000
     23800      7907  TIP3      OH2           -15.0341003985      -18.4202357466       29.4427953365  SOLV      7896            0.0000000000
     23801      7907  TIP3      H1            -14.4983503985      -17.9685657466       28.7907253365  SOLV      7896            0.0000000000
     23802      7907  TIP3      H2            -15.8861403985      -18.5282557466       29.0202053365  SOLV      7896            0.0000000000
     23803      7908  TIP3      OH2           -13.4522603985      -12.9806157466       29.6823153365  SOLV      7897            0.0000000000
     23804      7908  TIP3      H1            -12.7017803985      -13.1368657466       29.1090953365  SOLV      7897            0.0000000000
     23805      7908  TIP3      H2            -13.7914303985      -12.1289557466       29.4068653365  SOLV      7897            0.0000000000
     23806      7909  TIP3      OH2            -7.7199203985      -12.3769157466       32.7881153365  SOLV      7898            0.0000000000
     23807      7909  TIP3      H1             -8.0014203985      -11.6674557466       32.2104953365  SOLV      7898            0.0000000000
     23808      7909  TIP3      H2             -6.7774903985      -12.4496157466       32.6372353365  SOLV      7898            0.0000000000
     23809      7910  TIP3      OH2           -14.1067603985       -3.1040557466       17.7754653365  SOLV      7899            0.0000000000
     23810      7910  TIP3      H1            -13.1736903985       -2.9461857466       17.9193053365  SOLV      7899            0.0000000000
     23811      7910  TIP3      H2            -14.3708803985       -2.4287557466       17.1506153365  SOLV      7899            0.0000000000
     23812      7911  TIP3      OH2           -20.5382703985       -8.4676757466       17.2582753365  SOLV      7900            0.0000000000
     23813      7911  TIP3      H1            -19.6243503985       -8.3887857466       17.5316653365  SOLV      7900            0.0000000000
     23814      7911  TIP3      H2            -20.5309603985       -9.1547157466       16.5918353365  SOLV      7900            0.0000000000
     23815      7912  TIP3      OH2           -21.8892103985       -3.0748257466       22.3356653365  SOLV      7901            0.0000000000
     23816      7912  TIP3      H1            -22.5365003985       -3.5366557466       21.8027853365  SOLV      7901            0.0000000000
     23817      7912  TIP3      H2            -21.5347503985       -3.7464957466       22.9182853365  SOLV      7901            0.0000000000
     23818      7913  TIP3      OH2           -21.0192903985       -4.9941257466       24.1402853365  SOLV      7902            0.0000000000
     23819      7913  TIP3      H1            -21.3536103985       -5.8743957466       24.3123053365  SOLV      7902            0.0000000000
     23820      7913  TIP3      H2            -20.7970503985       -4.6486257466       25.0048453365  SOLV      7902            0.0000000000
     23821      7914  TIP3      OH2            -3.4708103985       -4.1844857466       27.1207653365  SOLV      7903            0.0000000000
     23822      7914  TIP3      H1             -3.4921403985       -3.9996457466       28.0597053365  SOLV      7903            0.0000000000
     23823      7914  TIP3      H2             -2.7801903985       -3.6160857466       26.7799053365  SOLV      7903            0.0000000000
     23824      7915  TIP3      OH2            -3.9075203985       -4.6173757466       30.0426753365  SOLV      7904            0.0000000000
     23825      7915  TIP3      H1             -4.3946503985       -5.3529657466       29.6714153365  SOLV      7904            0.0000000000
     23826      7915  TIP3      H2             -3.3582503985       -5.0109857466       30.7206153365  SOLV      7904            0.0000000000
     23827      7916  TIP3      OH2            -5.4567903985       -8.8275657466       34.6807053365  SOLV      7905            0.0000000000
     23828      7916  TIP3      H1             -6.3226803985       -8.9325957466       35.0749353365  SOLV      7905            0.0000000000
     23829      7916  TIP3      H2             -5.0802003985       -8.0692357466       35.1271753365  SOLV      7905            0.0000000000
     23830      7917  TIP3      OH2            -4.1558203985      -10.5711957466       20.1949553365  SOLV      7906            0.0000000000
     23831      7917  TIP3      H1             -3.3056803985      -10.1501057466       20.3221153365  SOLV      7906            0.0000000000
     23832      7917  TIP3      H2             -4.1503103985      -11.3111857466       20.8020953365  SOLV      7906            0.0000000000
     23833      7918  TIP3      OH2            -3.7612603985      -12.5174557466       22.0185253365  SOLV      7907            0.0000000000
     23834      7918  TIP3      H1             -4.4878003985      -12.9971957466       22.4162853365  SOLV      7907            0.0000000000
     23835      7918  TIP3      H2             -3.1799303985      -12.3119857466       22.7506853365  SOLV      7907            0.0000000000
     23836      7919  TIP3      OH2            -4.0021403985       -9.7327057466       26.9662853365  SOLV      7908            0.0000000000
     23837      7919  TIP3      H1             -3.1687203985      -10.1107057466       26.6856453365  SOLV      7908            0.0000000000
     23838      7919  TIP3      H2             -3.8901103985       -8.7895857466       26.8471953365  SOLV      7908            0.0000000000
     23839      7920  TIP3      OH2            -5.5159103985       -6.8549557466       29.2731253365  SOLV      7909            0.0000000000
     23840      7920  TIP3      H1             -6.1633803985       -6.5298057466       29.8986453365  SOLV      7909            0.0000000000
     23841      7920  TIP3      H2             -6.0335103985       -7.2951857466       28.5989553365  SOLV      7909            0.0000000000
     23842      7921  TIP3      OH2            -3.4929503985      -12.6166057466       18.4096553365  SOLV      7910            0.0000000000
     23843      7921  TIP3      H1             -4.0148403985      -12.2601957466       17.6907453365  SOLV      7910            0.0000000000
     23844      7921  TIP3      H2             -3.5260303985      -11.9418257466       19.0877453365  SOLV      7910            0.0000000000
     23845      7922  TIP3      OH2            -5.1440503985      -15.3770457466       16.9603653365  SOLV      7911            0.0000000000
     23846      7922  TIP3      H1             -5.0476103985      -14.7103457466       16.2803353365  SOLV      7911            0.0000000000
     23847      7922  TIP3      H2             -5.2840903985      -16.1924157466       16.4789153365  SOLV      7911            0.0000000000
     23848      7923  TIP3      OH2            -5.9745803985      -13.9968057466       22.5813953365  SOLV      7912            0.0000000000
     23849      7923  TIP3      H1             -6.1247003985      -14.9419457466       22.5611753365  SOLV      7912            0.0000000000
     23850      7923  TIP3      H2             -6.3281303985      -13.7156657466       23.4253053365  SOLV      7912            0.0000000000
     23851      7924  TIP3      OH2           -20.9393403985      -11.9185857466       26.5917753365  SOLV      7913            0.0000000000
     23852      7924  TIP3      H1            -20.7550503985      -12.0004157466       25.6560653365  SOLV      7913            0.0000000000
     23853      7924  TIP3      H2            -20.0900503985      -12.0428857466       27.0154153365  SOLV      7913            0.0000000000
     23854      7925  TIP3      OH2            -5.1182903985      -12.0264757466       32.2202253365  SOLV      7914            0.0000000000
     23855      7925  TIP3      H1             -4.5355603985      -12.7612457466       32.4119453365  SOLV      7914            0.0000000000
     23856      7925  TIP3      H2             -4.5543603985      -11.2544457466       32.2668053365  SOLV      7914            0.0000000000
     23857      7926  TIP3      OH2            -3.6215803985      -14.1238957466       32.9047653365  SOLV      7915            0.0000000000
     23858      7926  TIP3      H1             -4.4849103985      -14.5026857466       32.7392353365  SOLV      7915            0.0000000000
     23859      7926  TIP3      H2             -3.0172103985      -14.8624157466       32.8303453365  SOLV      7915            0.0000000000
     23860      7927  TIP3      OH2            -5.8966703985      -17.9690657466       16.0779153365  SOLV      7916            0.0000000000
     23861      7927  TIP3      H1             -5.2860903985      -18.3403857466       16.7147353365  SOLV      7916            0.0000000000
     23862      7927  TIP3      H2             -6.7335203985      -18.3903757466       16.2739153365  SOLV      7916            0.0000000000
     23863      7928  TIP3      OH2            -6.2641003985      -16.4142257466       21.0439053365  SOLV      7917            0.0000000000
     23864      7928  TIP3      H1             -5.9843903985      -17.3211857466       21.1680753365  SOLV      7917            0.0000000000
     23865      7928  TIP3      H2             -5.5049303985      -15.9800757466       20.6548253365  SOLV      7917            0.0000000000
     23866      7929  TIP3      OH2            -5.6522703985      -15.8324857466       26.4797953365  SOLV      7918            0.0000000000
     23867      7929  TIP3      H1             -4.7194703985      -15.6204957466       26.4453953365  SOLV      7918            0.0000000000
     23868      7929  TIP3      H2             -5.8875203985      -15.7312757466       27.4020953365  SOLV      7918            0.0000000000
     23869      7930  TIP3      OH2            -5.6230803985      -15.0959557466       29.2557353365  SOLV      7919            0.0000000000
     23870      7930  TIP3      H1             -6.4659503985      -14.8279157466       29.6217153365  SOLV      7919            0.0000000000
     23871      7930  TIP3      H2             -5.1806503985      -14.2737657466       29.0448453365  SOLV      7919            0.0000000000
     23872      7931  TIP3      OH2            -3.3399203985      -21.1159357466       34.6092353365  SOLV      7920            0.0000000000
     23873      7931  TIP3      H1             -2.9902203985      -21.7695857466       34.0037053365  SOLV      7920            0.0000000000
     23874      7931  TIP3      H2             -3.1929703985      -20.2785257466       34.1694953365  SOLV      7920            0.0000000000
     23875      7932  TIP3      OH2            -5.6506203985      -19.1512957466       21.0921053365  SOLV      7921            0.0000000000
     23876      7932  TIP3      H1             -5.4681203985      -19.6001457466       21.9176053365  SOLV      7921            0.0000000000
     23877      7932  TIP3      H2             -6.2503303985      -19.7358557466       20.6285653365  SOLV      7921            0.0000000000
     23878      7933  TIP3      OH2           -20.1206103985      -18.3359257466       25.6239453365  SOLV      7922            0.0000000000
     23879      7933  TIP3      H1            -19.6754503985      -19.1276757466       25.9259153365  SOLV      7922            0.0000000000
     23880      7933  TIP3      H2            -19.6543103985      -17.6194057466       26.0545053365  SOLV      7922            0.0000000000
     23881      7934  TIP3      OH2           -21.8165803985      -15.3366257466       26.6929653365  SOLV      7923            0.0000000000
     23882      7934  TIP3      H1            -21.3246003985      -15.5575757466       25.9021653365  SOLV      7923            0.0000000000
     23883      7934  TIP3      H2            -21.4544903985      -14.4962857466       26.9739153365  SOLV      7923            0.0000000000
     23884      7935  TIP3      OH2            -3.8202003985      -19.0064757466       32.9583653365  SOLV      7924            0.0000000000
     23885      7935  TIP3      H1             -4.7376303985      -18.7357657466       32.9227153365  SOLV      7924            0.0000000000
     23886      7935  TIP3      H2             -3.6972603985      -19.5416357466       32.1743353365  SOLV      7924            0.0000000000
     23887      7936  TIP3      OH2            -3.7840003985      -19.0834857466       17.6201353365  SOLV      7925            0.0000000000
     23888      7936  TIP3      H1             -3.3717403985      -19.8049157466       17.1449353365  SOLV      7925            0.0000000000
     23889      7936  TIP3      H2             -3.1023503985      -18.4140257466       17.6785653365  SOLV      7925            0.0000000000
     23890      7937  TIP3      OH2           -21.5029303985      -19.0787157466       20.7472053365  SOLV      7926            0.0000000000
     23891      7937  TIP3      H1            -22.4280903985      -18.8700557466       20.6177553365  SOLV      7926            0.0000000000
     23892      7937  TIP3      H2            -21.0489403985      -18.5946357466       20.0574353365  SOLV      7926            0.0000000000
     23893      7938  TIP3      OH2            -6.7322103985       -4.0945457466       22.6929453365  SOLV      7927            0.0000000000
     23894      7938  TIP3      H1             -6.0799203985       -4.4423357466       22.0848553365  SOLV      7927            0.0000000000
     23895      7938  TIP3      H2             -6.2218303985       -3.6062257466       23.3389153365  SOLV      7927            0.0000000000
     23896      7939  TIP3      OH2           -16.3931703985       -6.1912857466       29.4944353365  SOLV      7928            0.0000000000
     23897      7939  TIP3      H1            -16.8180603985       -5.3814357466       29.2118953365  SOLV      7928            0.0000000000
     23898      7939  TIP3      H2            -15.4888903985       -6.1058757466       29.1924153365  SOLV      7928            0.0000000000
     23899      7940  TIP3      OH2           -12.0820303985       -4.7922857466       32.4538053365  SOLV      7929            0.0000000000
     23900      7940  TIP3      H1            -11.8972803985       -5.1256757466       33.3318353365  SOLV      7929            0.0000000000
     23901      7940  TIP3      H2            -11.2355803985       -4.4824257466       32.1317253365  SOLV      7929            0.0000000000
     23902      7941  TIP3      OH2            -9.7369903985       -3.5063957466       31.6979453365  SOLV      7930            0.0000000000
     23903      7941  TIP3      H1             -9.0601003985       -4.1391657466       31.4578653365  SOLV      7930            0.0000000000
     23904      7941  TIP3      H2             -9.4151103985       -3.1053457466       32.5052753365  SOLV      7930            0.0000000000
     23905      7942  TIP3      OH2            -4.8196103985      -20.9168457466       30.7774453365  SOLV      7931            0.0000000000
     23906      7942  TIP3      H1             -5.6322603985      -20.5918157466       30.3899153365  SOLV      7931            0.0000000000
     23907      7942  TIP3      H2             -4.5867603985      -21.6769957466       30.2443553365  SOLV      7931            0.0000000000
     23908      7943  TIP3      OH2           -18.9915003985       -2.9348957466       29.5419653365  SOLV      7932            0.0000000000
     23909      7943  TIP3      H1            -19.7118603985       -2.4947957466       29.0907353365  SOLV      7932            0.0000000000
     23910      7943  TIP3      H2            -19.3571003985       -3.1854257466       30.3903653365  SOLV      7932            0.0000000000
     23911      7944  TIP3      OH2           -16.5242403985       -3.3345057466       28.5716853365  SOLV      7933            0.0000000000
     23912      7944  TIP3      H1            -17.3890203985       -3.2626557466       28.9756953365  SOLV      7933            0.0000000000
     23913      7944  TIP3      H2            -16.5793403985       -2.7877757466       27.7879353365  SOLV      7933            0.0000000000
     23914      7945  TIP3      OH2           -11.8136803985       -3.4466157466       27.7472853365  SOLV      7934            0.0000000000
     23915      7945  TIP3      H1            -12.2702803985       -2.9176457466       27.0931253365  SOLV      7934            0.0000000000
     23916      7945  TIP3      H2            -11.6508803985       -2.8434757466       28.4725153365  SOLV      7934            0.0000000000
     23917      7946  TIP3      OH2            -9.4860503985       -4.5686557466       28.6923153365  SOLV      7935            0.0000000000
     23918      7946  TIP3      H1            -10.3906803985       -4.4036357466       28.4265253365  SOLV      7935            0.0000000000
     23919      7946  TIP3      H2             -9.0571903985       -3.7154357466       28.6266553365  SOLV      7935            0.0000000000
     23920      7947  TIP3      OH2            -6.8818603985       -2.9987457466       28.9870953365  SOLV      7936            0.0000000000
     23921      7947  TIP3      H1             -7.0636603985       -2.0828557466       28.7765853365  SOLV      7936            0.0000000000
     23922      7947  TIP3      H2             -6.7050803985       -3.4090357466       28.1405553365  SOLV      7936            0.0000000000
     23923      7948  TIP3      OH2           -19.5766903985       -4.3116457466       26.4521453365  SOLV      7937            0.0000000000
     23924      7948  TIP3      H1            -19.5950903985       -4.7371357466       27.3093753365  SOLV      7937            0.0000000000
     23925      7948  TIP3      H2            -18.7719003985       -4.6301457466       26.0433653365  SOLV      7937            0.0000000000
     23926      7949  TIP3      OH2           -17.4353803985       -5.6017757466       25.1071353365  SOLV      7938            0.0000000000
     23927      7949  TIP3      H1            -17.6543103985       -6.5180357466       25.2767353365  SOLV      7938            0.0000000000
     23928      7949  TIP3      H2            -16.6111603985       -5.4617357466       25.5732753365  SOLV      7938            0.0000000000
     23929      7950  TIP3      OH2           -14.8981303985       -5.1318457466       25.9559353365  SOLV      7939            0.0000000000
     23930      7950  TIP3      H1            -14.6855603985       -6.0199457466       25.6690253365  SOLV      7939            0.0000000000
     23931      7950  TIP3      H2            -14.8336203985       -5.1660757466       26.9103353365  SOLV      7939            0.0000000000
     23932      7951  TIP3      OH2           -11.3897603985      -19.4677857466       25.1002653365  SOLV      7940            0.0000000000
     23933      7951  TIP3      H1            -12.0640803985      -20.0972257466       25.3558453365  SOLV      7940            0.0000000000
     23934      7951  TIP3      H2            -10.8258403985      -19.9518957466       24.4970553365  SOLV      7940            0.0000000000
     23935      7952  TIP3      OH2            -6.2470403985      -21.3603857466       25.2129753365  SOLV      7941            0.0000000000
     23936      7952  TIP3      H1             -5.6432803985      -20.8128457466       24.7110753365  SOLV      7941            0.0000000000
     23937      7952  TIP3      H2             -7.1168403985      -21.0413457466       24.9723853365  SOLV      7941            0.0000000000
     23938      7953  TIP3      OH2            -4.5200003985      -20.2215157466       23.5460653365  SOLV      7942            0.0000000000
     23939      7953  TIP3      H1             -3.9082503985      -20.7359457466       23.0194253365  SOLV      7942            0.0000000000
     23940      7953  TIP3      H2             -4.1376603985      -19.3443057466       23.5695053365  SOLV      7942            0.0000000000
     23941      7954  TIP3      OH2           -19.0630103985      -20.8337557466       22.9222553365  SOLV      7943            0.0000000000
     23942      7954  TIP3      H1            -19.8400303985      -21.0682657466       22.4148453365  SOLV      7943            0.0000000000
     23943      7954  TIP3      H2            -18.5326503985      -21.6305457466       22.9310553365  SOLV      7943            0.0000000000
     23944      7955  TIP3      OH2           -20.2266703985      -21.0359457466       18.7258653365  SOLV      7944            0.0000000000
     23945      7955  TIP3      H1            -19.7876003985      -20.4248957466       18.1342153365  SOLV      7944            0.0000000000
     23946      7955  TIP3      H2            -20.8604303985      -20.4975357466       19.1998653365  SOLV      7944            0.0000000000
     23947      7956  TIP3      OH2           -14.4837503985      -20.9070457466       22.7355653365  SOLV      7945            0.0000000000
     23948      7956  TIP3      H1            -13.6094103985      -20.5186157466       22.7059953365  SOLV      7945            0.0000000000
     23949      7956  TIP3      H2            -14.6196703985      -21.1222657466       23.6582853365  SOLV      7945            0.0000000000
     23950      7957  TIP3      OH2            -8.9269103985      -20.8770657466       24.3847353365  SOLV      7946            0.0000000000
     23951      7957  TIP3      H1             -8.8507503985      -20.7819057466       23.4353353365  SOLV      7946            0.0000000000
     23952      7957  TIP3      H2             -9.2019903985      -21.7847757466       24.5136453365  SOLV      7946            0.0000000000
     23953      7958  TIP3      OH2            -7.5736503985      -20.8512857466       20.0772353365  SOLV      7947            0.0000000000
     23954      7958  TIP3      H1             -8.2765403985      -20.2363657466       19.8673753365  SOLV      7947            0.0000000000
     23955      7958  TIP3      H2             -8.0185103985      -21.6886157466       20.2083253365  SOLV      7947            0.0000000000
     23956      7959  TIP3      OH2           -20.3257203985       -5.0877257466       19.6233753365  SOLV      7948            0.0000000000
     23957      7959  TIP3      H1            -21.0107303985       -5.1258357466       18.9558853365  SOLV      7948            0.0000000000
     23958      7959  TIP3      H2            -20.3220003985       -4.1749657466       19.9115853365  SOLV      7948            0.0000000000
     23959      7960  TIP3      OH2           -18.3657603985      -19.1197957466       17.1682753365  SOLV      7949            0.0000000000
     23960      7960  TIP3      H1            -17.8744203985      -19.7495557466       16.6408253365  SOLV      7949            0.0000000000
     23961      7960  TIP3      H2            -17.7421303985      -18.8238557466       17.8313953365  SOLV      7949            0.0000000000
     23962      7961  TIP3      OH2           -13.3397503985      -18.8266457466       19.6253253365  SOLV      7950            0.0000000000
     23963      7961  TIP3      H1            -13.1616203985      -19.4733257466       20.3081853365  SOLV      7950            0.0000000000
     23964      7961  TIP3      H2            -13.3931303985      -17.9928757466       20.0924353365  SOLV      7950            0.0000000000
     23965      7962  TIP3      OH2           -11.4613703985       -3.8782357466       18.0209953365  SOLV      7951            0.0000000000
     23966      7962  TIP3      H1            -10.5953503985       -3.5114957466       17.8428153365  SOLV      7951            0.0000000000
     23967      7962  TIP3      H2            -11.7080903985       -4.3174357466       17.2070753365  SOLV      7951            0.0000000000
     23968      7963  TIP3      OH2            -4.7524103985       -4.3152057466       20.7001053365  SOLV      7952            0.0000000000
     23969      7963  TIP3      H1             -4.9467003985       -5.0629957466       20.1350653365  SOLV      7952            0.0000000000
     23970      7963  TIP3      H2             -4.7914003985       -3.5571957466       20.1168953365  SOLV      7952            0.0000000000
     23971      7964  TIP3      OH2           -18.5076003985       -4.1676457466       16.6485853365  SOLV      7953            0.0000000000
     23972      7964  TIP3      H1            -18.7751403985       -3.8813557466       17.5218953365  SOLV      7953            0.0000000000
     23973      7964  TIP3      H2            -17.7363403985       -4.7137257466       16.8008353365  SOLV      7953            0.0000000000
     23974      7965  TIP3      OH2            -5.5347903985       -5.5639657466       32.8502853365  SOLV      7954            0.0000000000
     23975      7965  TIP3      H1             -6.3166003985       -5.7501657466       32.3303453365  SOLV      7954            0.0000000000
     23976      7965  TIP3      H2             -5.6068003985       -4.6345357466       33.0675353365  SOLV      7954            0.0000000000
     23977      7966  TIP3      OH2             8.8712496015      -11.6775257466       22.8810053365  SOLV      7955            0.0000000000
     23978      7966  TIP3      H1              8.9603596015      -10.7337057466       22.7487153365  SOLV      7955            0.0000000000
     23979      7966  TIP3      H2              8.2330096015      -11.9528857466       22.2229453365  SOLV      7955            0.0000000000
     23980      7967  TIP3      OH2             7.8043796015      -12.4224557466       26.2998253365  SOLV      7956            0.0000000000
     23981      7967  TIP3      H1              7.7661296015      -13.0688257466       27.0047853365  SOLV      7956            0.0000000000
     23982      7967  TIP3      H2              7.4820296015      -12.8890157466       25.5286953365  SOLV      7956            0.0000000000
     23983      7968  TIP3      OH2             0.1728796015      -12.8082457466       27.8928153365  SOLV      7957            0.0000000000
     23984      7968  TIP3      H1              0.2140896015      -13.4339157466       28.6160553365  SOLV      7957            0.0000000000
     23985      7968  TIP3      H2              0.8756496015      -12.1843857466       28.0748553365  SOLV      7957            0.0000000000
     23986      7969  TIP3      OH2            11.5103996015       -9.4834157466       24.6013353365  SOLV      7958            0.0000000000
     23987      7969  TIP3      H1             11.0696696015      -10.2038157466       25.0518953365  SOLV      7958            0.0000000000
     23988      7969  TIP3      H2             11.4973696015       -8.7626957466       25.2311053365  SOLV      7958            0.0000000000
     23989      7970  TIP3      OH2             1.0961896015       -8.3583557466       26.4277253365  SOLV      7959            0.0000000000
     23990      7970  TIP3      H1              0.7267096015       -9.1603057466       26.0581553365  SOLV      7959            0.0000000000
     23991      7970  TIP3      H2              2.0372996015       -8.5268657466       26.4740653365  SOLV      7959            0.0000000000
     23992      7971  TIP3      OH2            -2.2937603985      -14.6980957466       21.8206053365  SOLV      7960            0.0000000000
     23993      7971  TIP3      H1             -2.7414203985      -13.8522257466       21.8022553365  SOLV      7960            0.0000000000
     23994      7971  TIP3      H2             -2.8546403985      -15.2776757466       21.3051153365  SOLV      7960            0.0000000000
     23995      7972  TIP3      OH2            -1.5831503985      -12.5361357466       23.9464053365  SOLV      7961            0.0000000000
     23996      7972  TIP3      H1             -1.3698003985      -13.3059757466       24.4737053365  SOLV      7961            0.0000000000
     23997      7972  TIP3      H2             -0.8453903985      -12.4464657466       23.3431653365  SOLV      7961            0.0000000000
     23998      7973  TIP3      OH2             8.6219496015       -4.3792457466       24.8133753365  SOLV      7962            0.0000000000
     23999      7973  TIP3      H1              9.2415896015       -5.0557757466       24.5402953365  SOLV      7962            0.0000000000
     24000      7973  TIP3      H2              8.4136896015       -4.5971657466       25.7218653365  SOLV      7962            0.0000000000
     24001      7974  TIP3      OH2             6.1938196015       -9.9903157466       26.7059253365  SOLV      7963            0.0000000000
     24002      7974  TIP3      H1              6.4976096015      -10.6761757466       26.1113353365  SOLV      7963            0.0000000000
     24003      7974  TIP3      H2              6.9152196015       -9.8714457466       27.3237253365  SOLV      7963            0.0000000000
     24004      7975  TIP3      OH2            14.8567996015      -18.3887857466       27.5665453365  SOLV      7964            0.0000000000
     24005      7975  TIP3      H1             14.9060196015      -17.7786657466       28.3024553365  SOLV      7964            0.0000000000
     24006      7975  TIP3      H2             15.2823096015      -17.9276957466       26.8436553365  SOLV      7964            0.0000000000
     24007      7976  TIP3      OH2             9.3345196015      -15.5960757466       27.0334053365  SOLV      7965            0.0000000000
     24008      7976  TIP3      H1              9.4771096015      -16.5423757466       27.0535653365  SOLV      7965            0.0000000000
     24009      7976  TIP3      H2              9.2284196015      -15.3890957466       26.1048953365  SOLV      7965            0.0000000000
     24010      7977  TIP3      OH2             2.4893496015      -17.4944357466       24.3058853365  SOLV      7966            0.0000000000
     24011      7977  TIP3      H1              2.5324596015      -16.6345857466       23.8875153365  SOLV      7966            0.0000000000
     24012      7977  TIP3      H2              2.0317596015      -18.0469657466       23.6722053365  SOLV      7966            0.0000000000
     24013      7978  TIP3      OH2            10.2116196015      -17.3638757466       22.7067153365  SOLV      7967            0.0000000000
     24014      7978  TIP3      H1             10.8580496015      -17.6925557466       23.3314753365  SOLV      7967            0.0000000000
     24015      7978  TIP3      H2             10.7215596015      -16.8459757466       22.0838553365  SOLV      7967            0.0000000000
     24016      7979  TIP3      OH2            -0.8905003985      -15.0978557466       25.0680253365  SOLV      7968            0.0000000000
     24017      7979  TIP3      H1             -0.2368403985      -15.6476857466       25.5000353365  SOLV      7968            0.0000000000
     24018      7979  TIP3      H2             -0.8665703985      -15.3719557466       24.1512253365  SOLV      7968            0.0000000000
     24019      7980  TIP3      OH2             4.2659496015      -13.5477257466       24.2831753365  SOLV      7969            0.0000000000
     24020      7980  TIP3      H1              4.8820496015      -14.0741857466       24.7925753365  SOLV      7969            0.0000000000
     24021      7980  TIP3      H2              3.6798296015      -14.1878557466       23.8795353365  SOLV      7969            0.0000000000
     24022      7981  TIP3      OH2            15.2482596015      -16.9108657466       29.8025253365  SOLV      7970            0.0000000000
     24023      7981  TIP3      H1             14.5597196015      -16.2527957466       29.7071853365  SOLV      7970            0.0000000000
     24024      7981  TIP3      H2             15.2637196015      -17.1080757466       30.7390653365  SOLV      7970            0.0000000000
     24025      7982  TIP3      OH2             1.2995396015      -18.5765957466       28.3799653365  SOLV      7971            0.0000000000
     24026      7982  TIP3      H1              1.0807096015      -18.0465357466       27.6135653365  SOLV      7971            0.0000000000
     24027      7982  TIP3      H2              0.6316296015      -18.3500457466       29.0271053365  SOLV      7971            0.0000000000
     24028      7983  TIP3      OH2             8.6685196015       -9.0764857466       21.9238753365  SOLV      7972            0.0000000000
     24029      7983  TIP3      H1              8.3730296015       -9.3992557466       21.0725653365  SOLV      7972            0.0000000000
     24030      7983  TIP3      H2              8.3442996015       -8.1768157466       21.9651353365  SOLV      7972            0.0000000000
     24031      7984  TIP3      OH2             3.8686796015      -10.9010257466       28.6673353365  SOLV      7973            0.0000000000
     24032      7984  TIP3      H1              3.1285896015      -10.3028757466       28.7708553365  SOLV      7973            0.0000000000
     24033      7984  TIP3      H2              4.5826296015      -10.3470657466       28.3516953365  SOLV      7973            0.0000000000
     24034      7985  TIP3      OH2            11.9754596015      -18.0729457466       24.6873053365  SOLV      7974            0.0000000000
     24035      7985  TIP3      H1             11.7602596015      -18.8386057466       25.2199053365  SOLV      7974            0.0000000000
     24036      7985  TIP3      H2             12.6311996015      -17.6004857466       25.2001553365  SOLV      7974            0.0000000000
     24037      7986  TIP3      OH2             0.8932696015      -16.6844157466       26.3321853365  SOLV      7975            0.0000000000
     24038      7986  TIP3      H1              1.5068996015      -16.0516557466       26.7054253365  SOLV      7975            0.0000000000
     24039      7986  TIP3      H2              1.4053396015      -17.1569157466       25.6758753365  SOLV      7975            0.0000000000
     24040      7987  TIP3      OH2             2.2761096015       -8.9367257466       29.4544853365  SOLV      7976            0.0000000000
     24041      7987  TIP3      H1              2.2708696015       -8.0573757466       29.0764153365  SOLV      7976            0.0000000000
     24042      7987  TIP3      H2              1.4225196015       -9.0203157466       29.8794753365  SOLV      7976            0.0000000000
     24043      7988  TIP3      OH2            -1.6028003985       -9.2659357466       20.2364153365  SOLV      7977            0.0000000000
     24044      7988  TIP3      H1             -1.8747103985       -9.0368357466       19.3477053365  SOLV      7977            0.0000000000
     24045      7988  TIP3      H2             -1.5572303985       -8.4280557466       20.6969453365  SOLV      7977            0.0000000000
     24046      7989  TIP3      OH2            12.0221696015       -7.6443457466       26.9492653365  SOLV      7978            0.0000000000
     24047      7989  TIP3      H1             11.0805396015       -7.5859557466       27.1109553365  SOLV      7978            0.0000000000
     24048      7989  TIP3      H2             12.2987796015       -6.7382957466       26.8122353365  SOLV      7978            0.0000000000
     24049      7990  TIP3      OH2            12.3228696015      -19.3578157466       28.3666553365  SOLV      7979            0.0000000000
     24050      7990  TIP3      H1             11.5867896015      -18.7471057466       28.3287853365  SOLV      7979            0.0000000000
     24051      7990  TIP3      H2             13.0062696015      -18.9429157466       27.8402953365  SOLV      7979            0.0000000000
     24052      7991  TIP3      OH2             5.3260096015      -21.2710857466       25.8324553365  SOLV      7980            0.0000000000
     24053      7991  TIP3      H1              5.2084296015      -22.2194857466       25.7782853365  SOLV      7980            0.0000000000
     24054      7991  TIP3      H2              4.4710196015      -20.9384757466       26.1055653365  SOLV      7980            0.0000000000
     24055      7992  TIP3      OH2            10.2742896015       -5.8629957466       23.5744253365  SOLV      7981            0.0000000000
     24056      7992  TIP3      H1             10.6995196015       -6.5702057466       23.0893853365  SOLV      7981            0.0000000000
     24057      7992  TIP3      H2             10.5912896015       -5.0617257466       23.1576453365  SOLV      7981            0.0000000000
     24058      7993  TIP3      OH2            11.4339396015       -7.9621457466       22.0830853365  SOLV      7982            0.0000000000
     24059      7993  TIP3      H1             11.1764196015       -8.6521357466       21.4716753365  SOLV      7982            0.0000000000
     24060      7993  TIP3      H2             11.5050196015       -8.4050257466       22.9286753365  SOLV      7982            0.0000000000
     24061      7994  TIP3      OH2            13.1199596015       -9.3954757466       30.5604353365  SOLV      7983            0.0000000000
     24062      7994  TIP3      H1             13.2595896015       -9.9872257466       29.8211353365  SOLV      7983            0.0000000000
     24063      7994  TIP3      H2             13.2872396015       -8.5228857466       30.2043153365  SOLV      7983            0.0000000000
     24064      7995  TIP3      OH2             7.5924996015      -12.4335257466       20.3330353365  SOLV      7984            0.0000000000
     24065      7995  TIP3      H1              6.8810496015      -11.8985557466       19.9810853365  SOLV      7984            0.0000000000
     24066      7995  TIP3      H2              8.2834596015      -12.3783157466       19.6729253365  SOLV      7984            0.0000000000
     24067      7996  TIP3      OH2             7.6464196015      -13.9760957466       17.3715353365  SOLV      7985            0.0000000000
     24068      7996  TIP3      H1              8.3474096015      -13.9534057466       18.0229353365  SOLV      7985            0.0000000000
     24069      7996  TIP3      H2              7.9487096015      -14.6041257466       16.7154653365  SOLV      7985            0.0000000000
     24070      7997  TIP3      OH2            14.9618896015      -13.0556757466       28.6264753365  SOLV      7986            0.0000000000
     24071      7997  TIP3      H1             14.3092996015      -12.3611157466       28.7155653365  SOLV      7986            0.0000000000
     24072      7997  TIP3      H2             15.4269196015      -12.8455857466       27.8166353365  SOLV      7986            0.0000000000
     24073      7998  TIP3      OH2            10.9982696015      -12.2241957466       21.2846253365  SOLV      7987            0.0000000000
     24074      7998  TIP3      H1             10.2663696015      -11.9958257466       21.8576853365  SOLV      7987            0.0000000000
     24075      7998  TIP3      H2             11.4454896015      -12.9379257466       21.7393753365  SOLV      7987            0.0000000000
     24076      7999  TIP3      OH2            10.8956196015      -14.0499357466       30.3523253365  SOLV      7988            0.0000000000
     24077      7999  TIP3      H1             10.9755296015      -13.2864957466       30.9241753365  SOLV      7988            0.0000000000
     24078      7999  TIP3      H2             10.2943896015      -13.7706957466       29.6618353365  SOLV      7988            0.0000000000
     24079      8000  TIP3      OH2             2.6436396015      -11.5935757466       23.1671253365  SOLV      7989            0.0000000000
     24080      8000  TIP3      H1              2.3131596015      -11.9642357466       22.3488253365  SOLV      7989            0.0000000000
     24081      8000  TIP3      H2              3.2320496015      -12.2641757466       23.5139553365  SOLV      7989            0.0000000000
     24082      8001  TIP3      OH2             4.0103896015       -8.1655157466       25.8483453365  SOLV      7990            0.0000000000
     24083      8001  TIP3      H1              3.9155196015       -8.7442057466       25.0918053365  SOLV      7990            0.0000000000
     24084      8001  TIP3      H2              4.7397496015       -8.5369457466       26.3446253365  SOLV      7990            0.0000000000
     24085      8002  TIP3      OH2             3.0101896015      -12.8250157466       26.8006253365  SOLV      7991            0.0000000000
     24086      8002  TIP3      H1              3.5754396015      -12.7035957466       26.0377453365  SOLV      7991            0.0000000000
     24087      8002  TIP3      H2              3.3290796015      -12.1875157466       27.4394753365  SOLV      7991            0.0000000000
     24088      8003  TIP3      OH2             9.3194096015       -7.3218257466       27.5346753365  SOLV      7992            0.0000000000
     24089      8003  TIP3      H1              9.0790696015       -6.6595157466       28.1825953365  SOLV      7992            0.0000000000
     24090      8003  TIP3      H2              9.1212296015       -8.1563057466       27.9596353365  SOLV      7992            0.0000000000
     24091      8004  TIP3      OH2             3.8902596015       -8.4257457466       31.5178153365  SOLV      7993            0.0000000000
     24092      8004  TIP3      H1              3.5790096015       -7.6434257466       31.9731353365  SOLV      7993            0.0000000000
     24093      8004  TIP3      H2              3.2402796015       -8.5788357466       30.8320153365  SOLV      7993            0.0000000000
     24094      8005  TIP3      OH2             9.8692196015      -13.0619057466       18.9697453365  SOLV      7994            0.0000000000
     24095      8005  TIP3      H1             10.4487696015      -12.9118757466       19.7166353365  SOLV      7994            0.0000000000
     24096      8005  TIP3      H2             10.2832196015      -12.5911657466       18.2463853365  SOLV      7994            0.0000000000
     24097      8006  TIP3      OH2             0.8102496015      -12.2276357466       30.7463853365  SOLV      7995            0.0000000000
     24098      8006  TIP3      H1              0.8805696015      -11.5769557466       31.4448853365  SOLV      7995            0.0000000000
     24099      8006  TIP3      H2             -0.0805303985      -12.1248857466       30.4114753365  SOLV      7995            0.0000000000
     24100      8007  TIP3      OH2             7.5957096015       -6.3250557466       22.4050553365  SOLV      7996            0.0000000000
     24101      8007  TIP3      H1              8.0694696015       -6.0294257466       23.1824753365  SOLV      7996            0.0000000000
     24102      8007  TIP3      H2              7.0326396015       -5.5868957466       22.1720153365  SOLV      7996            0.0000000000
     24103      8008  TIP3      OH2             2.1298496015       -6.3542457466       32.2811953365  SOLV      7997            0.0000000000
     24104      8008  TIP3      H1              2.1373796015       -6.4902757466       31.3337453365  SOLV      7997            0.0000000000
     24105      8008  TIP3      H2              1.2138896015       -6.4714357466       32.5331953365  SOLV      7997            0.0000000000
     24106      8009  TIP3      OH2            13.5680596015      -21.3118657466       18.7827153365  SOLV      7998            0.0000000000
     24107      8009  TIP3      H1             12.6681296015      -21.1729657466       19.0777753365  SOLV      7998            0.0000000000
     24108      8009  TIP3      H2             13.8198996015      -20.4804057466       18.3808853365  SOLV      7998            0.0000000000
     24109      8010  TIP3      OH2             1.6339096015      -12.5241457466       20.7564053365  SOLV      7999            0.0000000000
     24110      8010  TIP3      H1              1.3420396015      -11.7559757466       20.2655353365  SOLV      7999            0.0000000000
     24111      8010  TIP3      H2              0.9594296015      -13.1835257466       20.5935453365  SOLV      7999            0.0000000000
     24112      8011  TIP3      OH2            14.7571996015       -6.9456257466       17.1591053365  SOLV      8000            0.0000000000
     24113      8011  TIP3      H1             14.8305496015       -6.0066057466       17.3296353365  SOLV      8000            0.0000000000
     24114      8011  TIP3      H2             15.6627096015       -7.2507657466       17.1028353365  SOLV      8000            0.0000000000
     24115      8012  TIP3      OH2            -2.2730803985      -10.1612257466       29.5713853365  SOLV      8001            0.0000000000
     24116      8012  TIP3      H1             -2.7742403985      -10.1892857466       28.7563553365  SOLV      8001            0.0000000000
     24117      8012  TIP3      H2             -2.2677103985      -11.0669057466       29.8811153365  SOLV      8001            0.0000000000
     24118      8013  TIP3      OH2            -2.5228103985       -7.3808457466       26.4554053365  SOLV      8002            0.0000000000
     24119      8013  TIP3      H1             -1.5767503985       -7.5251457466       26.4363553365  SOLV      8002            0.0000000000
     24120      8013  TIP3      H2             -2.6351803985       -6.5965657466       26.9925253365  SOLV      8002            0.0000000000
     24121      8014  TIP3      OH2            15.6750396015       -6.7148757466       32.1377753365  SOLV      8003            0.0000000000
     24122      8014  TIP3      H1             15.6257196015       -7.6700657466       32.1005353365  SOLV      8003            0.0000000000
     24123      8014  TIP3      H2             14.8482696015       -6.4473457466       32.5391553365  SOLV      8003            0.0000000000
     24124      8015  TIP3      OH2             6.6534396015       -7.1409557466       31.0139153365  SOLV      8004            0.0000000000
     24125      8015  TIP3      H1              6.7408996015       -6.3144957466       31.4888253365  SOLV      8004            0.0000000000
     24126      8015  TIP3      H2              5.7899496015       -7.4705757466       31.2628453365  SOLV      8004            0.0000000000
     24127      8016  TIP3      OH2             7.0680196015       -3.3685857466       20.8199753365  SOLV      8005            0.0000000000
     24128      8016  TIP3      H1              6.9926196015       -3.4898657466       19.8734953365  SOLV      8005            0.0000000000
     24129      8016  TIP3      H2              7.1008896015       -2.4193157466       20.9384353365  SOLV      8005            0.0000000000
     24130      8017  TIP3      OH2             0.7213996015       -4.5798857466       22.6008753365  SOLV      8006            0.0000000000
     24131      8017  TIP3      H1              0.8734396015       -4.9278457466       23.4795253365  SOLV      8006            0.0000000000
     24132      8017  TIP3      H2             -0.1295603985       -4.9361557466       22.3455953365  SOLV      8006            0.0000000000
     24133      8018  TIP3      OH2            10.1696196015       -4.2145657466       17.8222153365  SOLV      8007            0.0000000000
     24134      8018  TIP3      H1             10.5444596015       -4.9589557466       17.3514753365  SOLV      8007            0.0000000000
     24135      8018  TIP3      H2             10.1739896015       -4.4845057466       18.7405453365  SOLV      8007            0.0000000000
     24136      8019  TIP3      OH2             9.8384296015       -4.2888557466       20.5714353365  SOLV      8008            0.0000000000
     24137      8019  TIP3      H1              8.9034096015       -4.1886657466       20.7501353365  SOLV      8008            0.0000000000
     24138      8019  TIP3      H2             10.1186196015       -4.9982557466       21.1497553365  SOLV      8008            0.0000000000
     24139      8020  TIP3      OH2            12.8270196015      -15.2216257466       32.6179953365  SOLV      8009            0.0000000000
     24140      8020  TIP3      H1             12.4196996015      -14.7410657466       31.8973253365  SOLV      8009            0.0000000000
     24141      8020  TIP3      H2             12.8675896015      -16.1270257466       32.3100753365  SOLV      8009            0.0000000000
     24142      8021  TIP3      OH2            -0.0240303985       -8.8376857466       30.6146653365  SOLV      8010            0.0000000000
     24143      8021  TIP3      H1              0.1920996015       -9.1991257466       31.4742453365  SOLV      8010            0.0000000000
     24144      8021  TIP3      H2             -0.8795603985       -9.2123057466       30.4050153365  SOLV      8010            0.0000000000
     24145      8022  TIP3      OH2             2.5947696015      -20.3676357466       26.6100853365  SOLV      8011            0.0000000000
     24146      8022  TIP3      H1              1.7331396015      -20.4548157466       26.2023753365  SOLV      8011            0.0000000000
     24147      8022  TIP3      H2              2.5723396015      -19.5116257466       27.0378453365  SOLV      8011            0.0000000000
     24148      8023  TIP3      OH2             7.2575496015      -20.6455957466       29.9847853365  SOLV      8012            0.0000000000
     24149      8023  TIP3      H1              7.6778596015      -21.0608857466       30.7378453365  SOLV      8012            0.0000000000
     24150      8023  TIP3      H2              6.3245096015      -20.8242657466       30.1019853365  SOLV      8012            0.0000000000
     24151      8024  TIP3      OH2            10.5840396015      -16.8900757466       30.8382353365  SOLV      8013            0.0000000000
     24152      8024  TIP3      H1             10.0699896015      -17.0158557466       31.6358353365  SOLV      8013            0.0000000000
     24153      8024  TIP3      H2             10.4285096015      -15.9777657466       30.5938553365  SOLV      8013            0.0000000000
     24154      8025  TIP3      OH2            11.3465296015      -12.0290757466       16.5995353365  SOLV      8014            0.0000000000
     24155      8025  TIP3      H1             11.3886096015      -12.2516857466       15.6695353365  SOLV      8014            0.0000000000
     24156      8025  TIP3      H2             12.1957396015      -11.6303657466       16.7895253365  SOLV      8014            0.0000000000
     24157      8026  TIP3      OH2             6.9192796015      -18.1532557466       17.2698653365  SOLV      8015            0.0000000000
     24158      8026  TIP3      H1              6.6657596015      -18.1340957466       18.1926753365  SOLV      8015            0.0000000000
     24159      8026  TIP3      H2              6.6624896015      -19.0247157466       16.9684853365  SOLV      8015            0.0000000000
     24160      8027  TIP3      OH2             2.6857796015      -15.4021857466       27.7051053365  SOLV      8016            0.0000000000
     24161      8027  TIP3      H1              2.0439896015      -15.4424557466       28.4141153365  SOLV      8016            0.0000000000
     24162      8027  TIP3      H2              2.7229796015      -14.4757157466       27.4674053365  SOLV      8016            0.0000000000
     24163      8028  TIP3      OH2             2.6826896015      -15.1811757466       22.6171053365  SOLV      8017            0.0000000000
     24164      8028  TIP3      H1              1.7899796015      -15.5215657466       22.5584853365  SOLV      8017            0.0000000000
     24165      8028  TIP3      H2              3.1333496015      -15.5580857466       21.8614253365  SOLV      8017            0.0000000000
     24166      8029  TIP3      OH2             8.2182396015      -14.7651457466       21.4341853365  SOLV      8018            0.0000000000
     24167      8029  TIP3      H1              7.8092696015      -13.9502857466       21.1426653365  SOLV      8018            0.0000000000
     24168      8029  TIP3      H2              8.9388596015      -14.9051357466       20.8198953365  SOLV      8018            0.0000000000
     24169      8030  TIP3      OH2             7.3203996015      -14.5895057466       32.9222553365  SOLV      8019            0.0000000000
     24170      8030  TIP3      H1              6.7577796015      -15.2943457466       33.2430353365  SOLV      8019            0.0000000000
     24171      8030  TIP3      H2              8.1467396015      -14.7103157466       33.3900153365  SOLV      8019            0.0000000000
     24172      8031  TIP3      OH2             9.2230096015      -15.3191057466       24.2481553365  SOLV      8020            0.0000000000
     24173      8031  TIP3      H1              9.0274596015      -14.7134257466       23.5332153365  SOLV      8020            0.0000000000
     24174      8031  TIP3      H2              9.4042696015      -16.1525857466       23.8137853365  SOLV      8020            0.0000000000
     24175      8032  TIP3      OH2             0.4358296015      -15.0818357466       29.5723053365  SOLV      8021            0.0000000000
     24176      8032  TIP3      H1              0.3977696015      -14.6816757466       30.4410153365  SOLV      8021            0.0000000000
     24177      8032  TIP3      H2             -0.0550603985      -15.8985957466       29.6625953365  SOLV      8021            0.0000000000
     24178      8033  TIP3      OH2             3.8015696015      -17.7076057466       16.3709053365  SOLV      8022            0.0000000000
     24179      8033  TIP3      H1              3.3706396015      -18.1525957466       17.1006453365  SOLV      8022            0.0000000000
     24180      8033  TIP3      H2              3.0834396015      -17.3359757466       15.8586553365  SOLV      8022            0.0000000000
     24181      8034  TIP3      OH2            -2.9560903985      -17.9656557466       23.4227753365  SOLV      8023            0.0000000000
     24182      8034  TIP3      H1             -2.3253203985      -17.9944457466       24.1421653365  SOLV      8023            0.0000000000
     24183      8034  TIP3      H2             -2.5066603985      -18.3907857466       22.6923653365  SOLV      8023            0.0000000000
     24184      8035  TIP3      OH2            -1.6818803985      -17.2194557466       18.8468153365  SOLV      8024            0.0000000000
     24185      8035  TIP3      H1             -1.2077103985      -16.6284657466       18.2619053365  SOLV      8024            0.0000000000
     24186      8035  TIP3      H2             -2.3992403985      -16.6891657466       19.1938253365  SOLV      8024            0.0000000000
     24187      8036  TIP3      OH2             8.4869296015      -13.6809757466       28.9193953365  SOLV      8025            0.0000000000
     24188      8036  TIP3      H1              8.8104096015      -14.3120057466       28.2764453365  SOLV      8025            0.0000000000
     24189      8036  TIP3      H2              8.0468596015      -14.2157557466       29.5801353365  SOLV      8025            0.0000000000
     24190      8037  TIP3      OH2             5.2642196015      -17.7534257466       23.7035153365  SOLV      8026            0.0000000000
     24191      8037  TIP3      H1              4.3533296015      -17.6967457466       23.9921153365  SOLV      8026            0.0000000000
     24192      8037  TIP3      H2              5.7695096015      -17.8138757466       24.5142353365  SOLV      8026            0.0000000000
     24193      8038  TIP3      OH2             0.0925596015      -16.1247957466       22.5302753365  SOLV      8027            0.0000000000
     24194      8038  TIP3      H1             -0.7966403985      -16.0252457466       22.1902353365  SOLV      8027            0.0000000000
     24195      8038  TIP3      H2              0.3890496015      -16.9664957466       22.1840653365  SOLV      8027            0.0000000000
     24196      8039  TIP3      OH2             3.7457396015      -16.1245357466       20.1867353365  SOLV      8028            0.0000000000
     24197      8039  TIP3      H1              4.6772896015      -15.9955357466       20.3650453365  SOLV      8028            0.0000000000
     24198      8039  TIP3      H2              3.5307696015      -15.4551057466       19.5372053365  SOLV      8028            0.0000000000
     24199      8040  TIP3      OH2             9.6694096015      -18.5187957466       26.9676953365  SOLV      8029            0.0000000000
     24200      8040  TIP3      H1              8.9925696015      -18.3874857466       27.6316653365  SOLV      8029            0.0000000000
     24201      8040  TIP3      H2              9.1838996015      -18.6738457466       26.1574653365  SOLV      8029            0.0000000000
     24202      8041  TIP3      OH2             2.4197596015      -14.9303157466       17.7533453365  SOLV      8030            0.0000000000
     24203      8041  TIP3      H1              1.8772696015      -15.3099357466       17.0621053365  SOLV      8030            0.0000000000
     24204      8041  TIP3      H2              3.2532496015      -14.7358457466       17.3247553365  SOLV      8030            0.0000000000
     24205      8042  TIP3      OH2            12.9569196015       -2.8472557466       33.2444553365  SOLV      8031            0.0000000000
     24206      8042  TIP3      H1             13.1567896015       -2.4230657466       32.4099853365  SOLV      8031            0.0000000000
     24207      8042  TIP3      H2             13.6122896015       -2.5034357466       33.8514953365  SOLV      8031            0.0000000000
     24208      8043  TIP3      OH2             0.5548996015      -10.3731257466       32.8525053365  SOLV      8032            0.0000000000
     24209      8043  TIP3      H1              1.2871396015      -10.1185357466       33.4139553365  SOLV      8032            0.0000000000
     24210      8043  TIP3      H2             -0.2252303985      -10.1685857466       33.3680453365  SOLV      8032            0.0000000000
     24211      8044  TIP3      OH2             6.5841896015      -14.9661257466       25.5904753365  SOLV      8033            0.0000000000
     24212      8044  TIP3      H1              7.1485296015      -15.5124657466       25.0434353365  SOLV      8033            0.0000000000
     24213      8044  TIP3      H2              6.4365296015      -15.4879357466       26.3792353365  SOLV      8033            0.0000000000
     24214      8045  TIP3      OH2             1.5861596015      -18.8295157466       22.0089553365  SOLV      8034            0.0000000000
     24215      8045  TIP3      H1              1.2691096015      -19.7319857466       21.9734953365  SOLV      8034            0.0000000000
     24216      8045  TIP3      H2              2.3675696015      -18.8277757466       21.4561153365  SOLV      8034            0.0000000000
     24217      8046  TIP3      OH2             5.2107796015      -16.5775157466       28.0045153365  SOLV      8035            0.0000000000
     24218      8046  TIP3      H1              4.3753096015      -16.1235657466       28.1147553365  SOLV      8035            0.0000000000
     24219      8046  TIP3      H2              5.7348396015      -16.3016657466       28.7565053365  SOLV      8035            0.0000000000
     24220      8047  TIP3      OH2             5.7550396015      -10.3647457466       19.6891553365  SOLV      8036            0.0000000000
     24221      8047  TIP3      H1              5.0101396015      -10.8722157466       19.3669453365  SOLV      8036            0.0000000000
     24222      8047  TIP3      H2              5.6207596015      -10.3159457466       20.6356353365  SOLV      8036            0.0000000000
     24223      8048  TIP3      OH2            12.9049296015      -11.2319257466       28.4759153365  SOLV      8037            0.0000000000
     24224      8048  TIP3      H1             13.5468096015      -10.7752957466       27.9321353365  SOLV      8037            0.0000000000
     24225      8048  TIP3      H2             12.0746196015      -11.1186857466       28.0133253365  SOLV      8037            0.0000000000
     24226      8049  TIP3      OH2             9.6527196015      -17.5507557466       17.8884153365  SOLV      8038            0.0000000000
     24227      8049  TIP3      H1              8.7141396015      -17.4391957466       17.7372953365  SOLV      8038            0.0000000000
     24228      8049  TIP3      H2              9.9499296015      -16.6940657466       18.1949853365  SOLV      8038            0.0000000000
     24229      8050  TIP3      OH2             7.2742496015      -10.1804157466       30.9260653365  SOLV      8039            0.0000000000
     24230      8050  TIP3      H1              6.9288596015      -10.5621757466       31.7330253365  SOLV      8039            0.0000000000
     24231      8050  TIP3      H2              7.0742596015       -9.2470557466       30.9973553365  SOLV      8039            0.0000000000
     24232      8051  TIP3      OH2            10.3710696015      -15.6834857466       19.5491553365  SOLV      8040            0.0000000000
     24233      8051  TIP3      H1             11.2629696015      -15.8209857466       19.8682753365  SOLV      8040            0.0000000000
     24234      8051  TIP3      H2             10.4274296015      -14.8928757466       19.0125053365  SOLV      8040            0.0000000000
     24235      8052  TIP3      OH2             0.8798696015      -11.0697457466       25.4589453365  SOLV      8041            0.0000000000
     24236      8052  TIP3      H1              1.6245896015      -11.0721757466       24.8575953365  SOLV      8041            0.0000000000
     24237      8052  TIP3      H2              0.9575296015      -11.8933657466       25.9404553365  SOLV      8041            0.0000000000
     24238      8053  TIP3      OH2             7.8804496015       -8.9063157466       18.7146153365  SOLV      8042            0.0000000000
     24239      8053  TIP3      H1              7.5852896015       -8.0795257466       19.0960953365  SOLV      8042            0.0000000000
     24240      8053  TIP3      H2              7.1774496015       -9.5256257466       18.9107553365  SOLV      8042            0.0000000000
     24241      8054  TIP3      OH2            -2.1121603985      -12.6090557466       30.7737953365  SOLV      8043            0.0000000000
     24242      8054  TIP3      H1             -1.8893003985      -13.0270957466       31.6055453365  SOLV      8043            0.0000000000
     24243      8054  TIP3      H2             -2.7141503985      -13.2215557466       30.3510753365  SOLV      8043            0.0000000000
     24244      8055  TIP3      OH2             4.9043296015      -13.0920657466       32.9867653365  SOLV      8044            0.0000000000
     24245      8055  TIP3      H1              4.6084096015      -13.2577657466       32.0916753365  SOLV      8044            0.0000000000
     24246      8055  TIP3      H2              5.8358496015      -13.3120357466       32.9761553365  SOLV      8044            0.0000000000
     24247      8056  TIP3      OH2             9.5246096015       -7.7188657466       30.8765653365  SOLV      8045            0.0000000000
     24248      8056  TIP3      H1              8.6240396015       -7.5356057466       30.6089553365  SOLV      8045            0.0000000000
     24249      8056  TIP3      H2              9.5587196015       -7.4599357466       31.7974453365  SOLV      8045            0.0000000000
     24250      8057  TIP3      OH2            15.2559396015      -15.4740757466       19.2438253365  SOLV      8046            0.0000000000
     24251      8057  TIP3      H1             14.7015696015      -15.8702757466       18.5715753365  SOLV      8046            0.0000000000
     24252      8057  TIP3      H2             15.3562996015      -14.5635557466       18.9661553365  SOLV      8046            0.0000000000
     24253      8058  TIP3      OH2            15.2191396015       -9.6739057466       32.0809753365  SOLV      8047            0.0000000000
     24254      8058  TIP3      H1             14.3679896015       -9.4355257466       31.7136153365  SOLV      8047            0.0000000000
     24255      8058  TIP3      H2             15.8094796015       -9.6905857466       31.3276853365  SOLV      8047            0.0000000000
     24256      8059  TIP3      OH2            13.5511096015       -6.6880357466       19.7090353365  SOLV      8048            0.0000000000
     24257      8059  TIP3      H1             13.1782196015       -7.5136557466       20.0180953365  SOLV      8048            0.0000000000
     24258      8059  TIP3      H2             13.8284596015       -6.8710957466       18.8113753365  SOLV      8048            0.0000000000
     24259      8060  TIP3      OH2            10.7114996015      -11.8800857466       26.7302253365  SOLV      8049            0.0000000000
     24260      8060  TIP3      H1              9.7831896015      -12.1118957466       26.7031553365  SOLV      8049            0.0000000000
     24261      8060  TIP3      H2             11.1626096015      -12.6571057466       26.4001053365  SOLV      8049            0.0000000000
     24262      8061  TIP3      OH2             3.2548096015       -7.5519257466       22.8630953365  SOLV      8050            0.0000000000
     24263      8061  TIP3      H1              3.7820296015       -6.7784857466       22.6629753365  SOLV      8050            0.0000000000
     24264      8061  TIP3      H2              2.3746596015       -7.3270057466       22.5614953365  SOLV      8050            0.0000000000
     24265      8062  TIP3      OH2            -0.9904203985      -12.6895157466       17.4503353365  SOLV      8051            0.0000000000
     24266      8062  TIP3      H1             -0.3744303985      -12.0627957466       17.8298153365  SOLV      8051            0.0000000000
     24267      8062  TIP3      H2             -1.8521603985      -12.3735357466       17.7219853365  SOLV      8051            0.0000000000
     24268      8063  TIP3      OH2             4.6820396015       -9.8889357466       22.4395253365  SOLV      8052            0.0000000000
     24269      8063  TIP3      H1              4.4410396015       -8.9634957466       22.4810553365  SOLV      8052            0.0000000000
     24270      8063  TIP3      H2              3.9413996015      -10.3478057466       22.8359153365  SOLV      8052            0.0000000000
     24271      8064  TIP3      OH2             5.1966996015       -5.7395757466       28.7546353365  SOLV      8053            0.0000000000
     24272      8064  TIP3      H1              5.5591696015       -4.8850157466       28.5210753365  SOLV      8053            0.0000000000
     24273      8064  TIP3      H2              5.7282196015       -6.0314157466       29.4952653365  SOLV      8053            0.0000000000
     24274      8065  TIP3      OH2             3.3651196015       -4.8671757466       21.9847453365  SOLV      8054            0.0000000000
     24275      8065  TIP3      H1              2.4151696015       -4.7614357466       22.0360753365  SOLV      8054            0.0000000000
     24276      8065  TIP3      H2              3.7169296015       -4.0464357466       22.3294953365  SOLV      8054            0.0000000000
     24277      8066  TIP3      OH2             8.7407796015       -9.6405057466       28.4551953365  SOLV      8055            0.0000000000
     24278      8066  TIP3      H1              8.3149096015       -9.8683357466       29.2815953365  SOLV      8055            0.0000000000
     24279      8066  TIP3      H2              9.3213596015      -10.3793257466       28.2727253365  SOLV      8055            0.0000000000
     24280      8067  TIP3      OH2            10.9436696015       -8.7114557466       17.5290953365  SOLV      8056            0.0000000000
     24281      8067  TIP3      H1             11.2969796015       -9.0914757466       18.3334453365  SOLV      8056            0.0000000000
     24282      8067  TIP3      H2              9.9950196015       -8.8049757466       17.6160253365  SOLV      8056            0.0000000000
     24283      8068  TIP3      OH2            11.3991996015       -5.0885557466       30.9246753365  SOLV      8057            0.0000000000
     24284      8068  TIP3      H1             10.7975196015       -5.6442657466       30.4293053365  SOLV      8057            0.0000000000
     24285      8068  TIP3      H2             11.6805696015       -4.4215757466       30.2984153365  SOLV      8057            0.0000000000
     24286      8069  TIP3      OH2            15.4471096015       -4.2322057466       17.7301153365  SOLV      8058            0.0000000000
     24287      8069  TIP3      H1             16.1908996015       -3.6461557466       17.5902753365  SOLV      8058            0.0000000000
     24288      8069  TIP3      H2             14.7529196015       -3.6636257466       18.0633553365  SOLV      8058            0.0000000000
     24289      8070  TIP3      OH2            -0.4782103985      -17.8557857466       30.3319353365  SOLV      8059            0.0000000000
     24290      8070  TIP3      H1             -1.3709803985      -17.5172457466       30.2643353365  SOLV      8059            0.0000000000
     24291      8070  TIP3      H2             -0.5769303985      -18.7111757466       30.7500153365  SOLV      8059            0.0000000000
     24292      8071  TIP3      OH2            11.8095996015      -10.0392557466       19.7558853365  SOLV      8060            0.0000000000
     24293      8071  TIP3      H1             11.5323596015      -10.7673257466       20.3119953365  SOLV      8060            0.0000000000
     24294      8071  TIP3      H2             12.7368996015       -9.9200557466       19.9611453365  SOLV      8060            0.0000000000
     24295      8072  TIP3      OH2            -0.8270103985       -6.0513457466       28.7668753365  SOLV      8061            0.0000000000
     24296      8072  TIP3      H1             -0.6099803985       -6.9831057466       28.7358453365  SOLV      8061            0.0000000000
     24297      8072  TIP3      H2             -0.5806603985       -5.7768457466       29.6501553365  SOLV      8061            0.0000000000
     24298      8073  TIP3      OH2             5.0344496015       -7.5998457466       15.9760953365  SOLV      8062            0.0000000000
     24299      8073  TIP3      H1              5.2734296015       -8.3480357466       15.4289853365  SOLV      8062            0.0000000000
     24300      8073  TIP3      H2              4.7655796015       -7.9876757466       16.8088753365  SOLV      8062            0.0000000000
     24301      8074  TIP3      OH2             3.9715096015       -8.0294657466       18.4323553365  SOLV      8063            0.0000000000
     24302      8074  TIP3      H1              4.1183096015       -8.5494857466       19.2224453365  SOLV      8063            0.0000000000
     24303      8074  TIP3      H2              3.9686796015       -7.1227057466       18.7389453365  SOLV      8063            0.0000000000
     24304      8075  TIP3      OH2             0.4246196015      -10.7771357466       18.9428953365  SOLV      8064            0.0000000000
     24305      8075  TIP3      H1             -0.2614503985      -10.4248857466       19.5098653365  SOLV      8064            0.0000000000
     24306      8075  TIP3      H2              0.9474096015      -10.0141757466       18.6963253365  SOLV      8064            0.0000000000
     24307      8076  TIP3      OH2             8.2561296015      -18.1147557466       29.2217953365  SOLV      8065            0.0000000000
     24308      8076  TIP3      H1              8.9549196015      -18.0408857466       29.8717653365  SOLV      8065            0.0000000000
     24309      8076  TIP3      H2              7.8752696015      -18.9792557466       29.3760853365  SOLV      8065            0.0000000000
     24310      8077  TIP3      OH2             9.0406196015      -18.4625857466       20.3190253365  SOLV      8066            0.0000000000
     24311      8077  TIP3      H1              9.2604496015      -17.9910457466       19.5155653365  SOLV      8066            0.0000000000
     24312      8077  TIP3      H2              9.5990196015      -18.0683257466       20.9890853365  SOLV      8066            0.0000000000
     24313      8078  TIP3      OH2             6.7092296015       -6.3321057466       19.1817753365  SOLV      8067            0.0000000000
     24314      8078  TIP3      H1              5.8928396015       -5.8351357466       19.2342053365  SOLV      8067            0.0000000000
     24315      8078  TIP3      H2              7.2388596015       -5.8567557466       18.5416553365  SOLV      8067            0.0000000000
     24316      8079  TIP3      OH2             6.2406096015      -16.7347057466       21.1538653365  SOLV      8068            0.0000000000
     24317      8079  TIP3      H1              7.0528696015      -16.2303857466       21.2000353365  SOLV      8068            0.0000000000
     24318      8079  TIP3      H2              5.9959096015      -16.8797357466       22.0678253365  SOLV      8068            0.0000000000
     24319      8080  TIP3      OH2             6.7762496015      -15.7484357466       30.3385253365  SOLV      8069            0.0000000000
     24320      8080  TIP3      H1              6.8952796015      -15.1748957466       31.0955653365  SOLV      8069            0.0000000000
     24321      8080  TIP3      H2              7.4317096015      -16.4364957466       30.4533053365  SOLV      8069            0.0000000000
     24322      8081  TIP3      OH2             7.1242796015      -19.6534057466       22.0919753365  SOLV      8070            0.0000000000
     24323      8081  TIP3      H1              6.7776296015      -19.0363457466       22.7364053365  SOLV      8070            0.0000000000
     24324      8081  TIP3      H2              7.7829696015      -19.1528357466       21.6105253365  SOLV      8070            0.0000000000
     24325      8082  TIP3      OH2             4.0475396015       -5.2883857466       19.1634653365  SOLV      8071            0.0000000000
     24326      8082  TIP3      H1              4.2084096015       -4.4886357466       18.6627253365  SOLV      8071            0.0000000000
     24327      8082  TIP3      H2              3.8503196015       -4.9817857466       20.0485253365  SOLV      8071            0.0000000000
     24328      8083  TIP3      OH2             2.7819796015      -18.5904657466       18.7792253365  SOLV      8072            0.0000000000
     24329      8083  TIP3      H1              2.6984596015      -17.7021557466       19.1258653365  SOLV      8072            0.0000000000
     24330      8083  TIP3      H2              3.6720096015      -18.8557957466       19.0109053365  SOLV      8072            0.0000000000
     24331      8084  TIP3      OH2            12.9808296015      -17.8414057466       31.1734953365  SOLV      8073            0.0000000000
     24332      8084  TIP3      H1             12.0644096015      -17.5792357466       31.0858653365  SOLV      8073            0.0000000000
     24333      8084  TIP3      H2             13.3163296015      -17.8445057466       30.2770253365  SOLV      8073            0.0000000000
     24334      8085  TIP3      OH2            11.5829296015      -14.0913057466       25.2692253365  SOLV      8074            0.0000000000
     24335      8085  TIP3      H1             10.7853696015      -14.5062857466       24.9407253365  SOLV      8074            0.0000000000
     24336      8085  TIP3      H2             12.0280396015      -14.7819357466       25.7602753365  SOLV      8074            0.0000000000
     24337      8086  TIP3      OH2             1.0405096015       -8.1632457466       17.8396753365  SOLV      8075            0.0000000000
     24338      8086  TIP3      H1              1.6326596015       -7.4637657466       18.1159153365  SOLV      8075            0.0000000000
     24339      8086  TIP3      H2              1.4998096015       -8.5962957466       17.1201353365  SOLV      8075            0.0000000000
     24340      8087  TIP3      OH2            -0.6435703985      -15.4989457466       16.9556153365  SOLV      8076            0.0000000000
     24341      8087  TIP3      H1             -0.6883103985      -14.5596357466       17.1343153365  SOLV      8076            0.0000000000
     24342      8087  TIP3      H2             -1.5312503985      -15.7344557466       16.6858253365  SOLV      8076            0.0000000000
     24343      8088  TIP3      OH2            12.6693896015       -4.8350557466       26.8915753365  SOLV      8077            0.0000000000
     24344      8088  TIP3      H1             12.5138196015       -4.1566157466       26.2345053365  SOLV      8077            0.0000000000
     24345      8088  TIP3      H2             13.6020296015       -4.7631257466       27.0946353365  SOLV      8077            0.0000000000
     24346      8089  TIP3      OH2             0.1646296015      -20.7172857466       25.6287153365  SOLV      8078            0.0000000000
     24347      8089  TIP3      H1             -0.0643903985      -20.6580357466       24.7012153365  SOLV      8078            0.0000000000
     24348      8089  TIP3      H2             -0.2780303985      -21.5087357466       25.9351253365  SOLV      8078            0.0000000000
     24349      8090  TIP3      OH2            -0.9050403985       -6.7765757466       21.7892953365  SOLV      8079            0.0000000000
     24350      8090  TIP3      H1             -1.7371803985       -6.3043057466       21.8164353365  SOLV      8079            0.0000000000
     24351      8090  TIP3      H2             -0.3592103985       -6.2668157466       21.1906053365  SOLV      8079            0.0000000000
     24352      8091  TIP3      OH2            -1.6166703985       -4.1642057466       33.1190953365  SOLV      8080            0.0000000000
     24353      8091  TIP3      H1             -1.0764503985       -4.3808057466       33.8790153365  SOLV      8080            0.0000000000
     24354      8091  TIP3      H2             -2.0978703985       -4.9696057466       32.9293453365  SOLV      8080            0.0000000000
     24355      8092  TIP3      OH2             2.9806696015       -5.2447657466       34.7395153365  SOLV      8081            0.0000000000
     24356      8092  TIP3      H1              3.7483896015       -5.7036857466       35.0804353365  SOLV      8081            0.0000000000
     24357      8092  TIP3      H2              2.9592896015       -5.4707857466       33.8096353365  SOLV      8081            0.0000000000
     24358      8093  TIP3      OH2             7.0726296015       -5.7367057466       16.1146953365  SOLV      8082            0.0000000000
     24359      8093  TIP3      H1              6.4287296015       -6.3678457466       16.4360653365  SOLV      8082            0.0000000000
     24360      8093  TIP3      H2              7.8344596015       -6.2679057466       15.8830453365  SOLV      8082            0.0000000000
     24361      8094  TIP3      OH2             9.5575396015       -6.8646557466       33.4686653365  SOLV      8083            0.0000000000
     24362      8094  TIP3      H1              9.2064896015       -7.7213557466       33.7117053365  SOLV      8083            0.0000000000
     24363      8094  TIP3      H2             10.2838596015       -6.7219857466       34.0755653365  SOLV      8083            0.0000000000
     24364      8095  TIP3      OH2            11.6769196015       -5.9197157466       16.3484953365  SOLV      8084            0.0000000000
     24365      8095  TIP3      H1             11.9599596015       -6.7141957466       16.8011853365  SOLV      8084            0.0000000000
     24366      8095  TIP3      H2             12.4167096015       -5.6866157466       15.7876053365  SOLV      8084            0.0000000000
     24367      8096  TIP3      OH2            -1.7097203985      -10.3537957466       34.0735253365  SOLV      8085            0.0000000000
     24368      8096  TIP3      H1             -1.5656703985      -11.2557257466       33.7871953365  SOLV      8085            0.0000000000
     24369      8096  TIP3      H2             -2.4819803985      -10.0675857466       33.5857553365  SOLV      8085            0.0000000000
     24370      8097  TIP3      OH2             2.6316496015      -10.0102257466       16.2059853365  SOLV      8086            0.0000000000
     24371      8097  TIP3      H1              2.6960596015      -10.8042657466       16.7366253365  SOLV      8086            0.0000000000
     24372      8097  TIP3      H2              3.2845696015      -10.1289457466       15.5161853365  SOLV      8086            0.0000000000
     24373      8098  TIP3      OH2             4.9458896015      -10.3839857466       33.5061653365  SOLV      8087            0.0000000000
     24374      8098  TIP3      H1              4.6172696015      -10.1131757466       32.6489053365  SOLV      8087            0.0000000000
     24375      8098  TIP3      H2              5.0977096015      -11.3250057466       33.4186653365  SOLV      8087            0.0000000000
     24376      8099  TIP3      OH2             7.9839896015       -8.9630557466       15.9417853365  SOLV      8088            0.0000000000
     24377      8099  TIP3      H1              7.7153996015       -8.7828457466       16.8426753365  SOLV      8088            0.0000000000
     24378      8099  TIP3      H2              7.7775496015       -9.8884357466       15.8103653365  SOLV      8088            0.0000000000
     24379      8100  TIP3      OH2            10.6804096015      -10.4682557466       30.8893953365  SOLV      8089            0.0000000000
     24380      8100  TIP3      H1             11.4258896015       -9.8798857466       30.7697953365  SOLV      8089            0.0000000000
     24381      8100  TIP3      H2              9.9230896015       -9.8862857466       30.9527053365  SOLV      8089            0.0000000000
     24382      8101  TIP3      OH2            -0.8770703985      -13.1534657466       33.4934553365  SOLV      8090            0.0000000000
     24383      8101  TIP3      H1             -0.4689503985      -14.0108057466       33.3725153365  SOLV      8090            0.0000000000
     24384      8101  TIP3      H2             -1.1373103985      -13.1393357466       34.4144853365  SOLV      8090            0.0000000000
     24385      8102  TIP3      OH2             3.7810296015      -12.0376057466       18.5117853365  SOLV      8091            0.0000000000
     24386      8102  TIP3      H1              3.3212296015      -12.5217757466       19.1976353365  SOLV      8091            0.0000000000
     24387      8102  TIP3      H2              4.0358996015      -12.7060657466       17.8758353365  SOLV      8091            0.0000000000
     24388      8103  TIP3      OH2             3.0699596015      -14.1448957466       30.8677453365  SOLV      8092            0.0000000000
     24389      8103  TIP3      H1              2.4515696015      -13.4702357466       31.1482153365  SOLV      8092            0.0000000000
     24390      8103  TIP3      H2              3.4140796015      -13.8235057466       30.0343653365  SOLV      8092            0.0000000000
     24391      8104  TIP3      OH2             4.8520696015      -13.7944257466       16.7741053365  SOLV      8093            0.0000000000
     24392      8104  TIP3      H1              4.6715696015      -13.9493057466       15.8469353365  SOLV      8093            0.0000000000
     24393      8104  TIP3      H2              5.8021196015      -13.6865557466       16.8188953365  SOLV      8093            0.0000000000
     24394      8105  TIP3      OH2             8.0897796015      -11.6733657466       34.1452253365  SOLV      8094            0.0000000000
     24395      8105  TIP3      H1              9.0428996015      -11.5894557466       34.1178253365  SOLV      8094            0.0000000000
     24396      8105  TIP3      H2              7.9292396015      -12.3851857466       34.7647153365  SOLV      8094            0.0000000000
     24397      8106  TIP3      OH2            14.2418996015      -11.4400057466       16.2199153365  SOLV      8095            0.0000000000
     24398      8106  TIP3      H1             13.9683796015      -11.8644557466       15.4067453365  SOLV      8095            0.0000000000
     24399      8106  TIP3      H2             14.2813096015      -10.5085557466       16.0029553365  SOLV      8095            0.0000000000
     24400      8107  TIP3      OH2             3.4093296015      -16.7898157466       31.9500553365  SOLV      8096            0.0000000000
     24401      8107  TIP3      H1              3.5594196015      -17.5186857466       31.3480253365  SOLV      8096            0.0000000000
     24402      8107  TIP3      H2              3.4115696015      -16.0126457466       31.3912753365  SOLV      8096            0.0000000000
     24403      8108  TIP3      OH2             3.8218996015      -18.4202357466       29.4427953365  SOLV      8097            0.0000000000
     24404      8108  TIP3      H1              4.3576496015      -17.9685657466       28.7907253365  SOLV      8097            0.0000000000
     24405      8108  TIP3      H2              2.9698596015      -18.5282557466       29.0202053365  SOLV      8097            0.0000000000
     24406      8109  TIP3      OH2             5.4037396015      -12.9806157466       29.6823153365  SOLV      8098            0.0000000000
     24407      8109  TIP3      H1              6.1542196015      -13.1368657466       29.1090953365  SOLV      8098            0.0000000000
     24408      8109  TIP3      H2              5.0645696015      -12.1289557466       29.4068653365  SOLV      8098            0.0000000000
     24409      8110  TIP3      OH2             9.8193596015      -15.1654357466       34.7108453365  SOLV      8099            0.0000000000
     24410      8110  TIP3      H1             10.0114896015      -16.0964957466       34.5992953365  SOLV      8099            0.0000000000
     24411      8110  TIP3      H2             10.6769896015      -14.7404857466       34.7003853365  SOLV      8099            0.0000000000
     24412      8111  TIP3      OH2            11.1360796015      -12.3769157466       32.7881153365  SOLV      8100            0.0000000000
     24413      8111  TIP3      H1             10.8545796015      -11.6674557466       32.2104953365  SOLV      8100            0.0000000000
     24414      8111  TIP3      H2             12.0785096015      -12.4496157466       32.6372353365  SOLV      8100            0.0000000000
     24415      8112  TIP3      OH2             1.8879596015      -15.5914657466       33.8616153365  SOLV      8101            0.0000000000
     24416      8112  TIP3      H1              1.1208596015      -16.1239857466       33.6513753365  SOLV      8101            0.0000000000
     24417      8112  TIP3      H2              2.5668596015      -15.9014257466       33.2622453365  SOLV      8101            0.0000000000
     24418      8113  TIP3      OH2             4.6274496015      -20.9636657466       29.8741553365  SOLV      8102            0.0000000000
     24419      8113  TIP3      H1              4.5294096015      -20.0173457466       29.7687753365  SOLV      8102            0.0000000000
     24420      8113  TIP3      H2              3.8850696015      -21.3362857466       29.3985053365  SOLV      8102            0.0000000000
     24421      8114  TIP3      OH2             5.8914996015      -16.6421257466       33.4379953365  SOLV      8103            0.0000000000
     24422      8114  TIP3      H1              5.6560396015      -16.8614557466       34.3394853365  SOLV      8103            0.0000000000
     24423      8114  TIP3      H2              5.1081896015      -16.8490057466       32.9282453365  SOLV      8103            0.0000000000
     24424      8115  TIP3      OH2             8.6071596015      -17.5147757466       32.5133453365  SOLV      8104            0.0000000000
     24425      8115  TIP3      H1              7.6596996015      -17.4828057466       32.6456753365  SOLV      8104            0.0000000000
     24426      8115  TIP3      H2              8.9198296015      -18.1400657466       33.1671653365  SOLV      8104            0.0000000000
     24427      8116  TIP3      OH2            10.2413096015      -18.8806657466       34.5185353365  SOLV      8105            0.0000000000
     24428      8116  TIP3      H1             10.1444896015      -19.8329357466       34.5127253365  SOLV      8105            0.0000000000
     24429      8116  TIP3      H2              9.9196196015      -18.6119857466       35.3790853365  SOLV      8105            0.0000000000
     24430      8117  TIP3      OH2             0.0682396015      -17.6710857466       33.5660853365  SOLV      8106            0.0000000000
     24431      8117  TIP3      H1              0.2799796015      -18.3774757466       32.9558353365  SOLV      8106            0.0000000000
     24432      8117  TIP3      H2             -0.0430103985      -18.1084857466       34.4102053365  SOLV      8106            0.0000000000
     24433      8118  TIP3      OH2             4.8492596015      -21.6699257466       32.5454353365  SOLV      8107            0.0000000000
     24434      8118  TIP3      H1              5.5610996015      -22.3097057466       32.5313453365  SOLV      8107            0.0000000000
     24435      8118  TIP3      H2              4.7482996015      -21.4030957466       31.6317453365  SOLV      8107            0.0000000000
     24436      8119  TIP3      OH2             5.2030096015      -19.9870857466       34.5990653365  SOLV      8108            0.0000000000
     24437      8119  TIP3      H1              5.0712296015      -20.4627057466       33.7789153365  SOLV      8108            0.0000000000
     24438      8119  TIP3      H2              4.6037496015      -19.2427257466       34.5437753365  SOLV      8108            0.0000000000
     24439      8120  TIP3      OH2             4.7492396015       -3.1040557466       17.7754653365  SOLV      8109            0.0000000000
     24440      8120  TIP3      H1              5.6823096015       -2.9461857466       17.9193053365  SOLV      8109            0.0000000000
     24441      8120  TIP3      H2              4.4851196015       -2.4287557466       17.1506153365  SOLV      8109            0.0000000000
     24442      8121  TIP3      OH2            -1.6822703985       -8.4676757466       17.2582753365  SOLV      8110            0.0000000000
     24443      8121  TIP3      H1             -0.7683503985       -8.3887857466       17.5316653365  SOLV      8110            0.0000000000
     24444      8121  TIP3      H2             -1.6749603985       -9.1547157466       16.5918353365  SOLV      8110            0.0000000000
     24445      8122  TIP3      OH2            -3.0332103985       -3.0748257466       22.3356653365  SOLV      8111            0.0000000000
     24446      8122  TIP3      H1             -3.6805003985       -3.5366557466       21.8027853365  SOLV      8111            0.0000000000
     24447      8122  TIP3      H2             -2.6787503985       -3.7464957466       22.9182853365  SOLV      8111            0.0000000000
     24448      8123  TIP3      OH2            -2.1632903985       -4.9941257466       24.1402853365  SOLV      8112            0.0000000000
     24449      8123  TIP3      H1             -2.4976103985       -5.8743957466       24.3123053365  SOLV      8112            0.0000000000
     24450      8123  TIP3      H2             -1.9410503985       -4.6486257466       25.0048453365  SOLV      8112            0.0000000000
     24451      8124  TIP3      OH2            15.3851896015       -4.1844857466       27.1207653365  SOLV      8113            0.0000000000
     24452      8124  TIP3      H1             15.3638596015       -3.9996457466       28.0597053365  SOLV      8113            0.0000000000
     24453      8124  TIP3      H2             16.0758096015       -3.6160857466       26.7799053365  SOLV      8113            0.0000000000
     24454      8125  TIP3      OH2            14.9484796015       -4.6173757466       30.0426753365  SOLV      8114            0.0000000000
     24455      8125  TIP3      H1             14.4613496015       -5.3529657466       29.6714153365  SOLV      8114            0.0000000000
     24456      8125  TIP3      H2             15.4977496015       -5.0109857466       30.7206153365  SOLV      8114            0.0000000000
     24457      8126  TIP3      OH2            13.3992096015       -8.8275657466       34.6807053365  SOLV      8115            0.0000000000
     24458      8126  TIP3      H1             12.5333196015       -8.9325957466       35.0749353365  SOLV      8115            0.0000000000
     24459      8126  TIP3      H2             13.7757996015       -8.0692357466       35.1271753365  SOLV      8115            0.0000000000
     24460      8127  TIP3      OH2            14.7001796015      -10.5711957466       20.1949553365  SOLV      8116            0.0000000000
     24461      8127  TIP3      H1             15.5503196015      -10.1501057466       20.3221153365  SOLV      8116            0.0000000000
     24462      8127  TIP3      H2             14.7056896015      -11.3111857466       20.8020953365  SOLV      8116            0.0000000000
     24463      8128  TIP3      OH2            15.0947396015      -12.5174557466       22.0185253365  SOLV      8117            0.0000000000
     24464      8128  TIP3      H1             14.3681996015      -12.9971957466       22.4162853365  SOLV      8117            0.0000000000
     24465      8128  TIP3      H2             15.6760696015      -12.3119857466       22.7506853365  SOLV      8117            0.0000000000
     24466      8129  TIP3      OH2            14.8538596015       -9.7327057466       26.9662853365  SOLV      8118            0.0000000000
     24467      8129  TIP3      H1             15.6872796015      -10.1107057466       26.6856453365  SOLV      8118            0.0000000000
     24468      8129  TIP3      H2             14.9658896015       -8.7895857466       26.8471953365  SOLV      8118            0.0000000000
     24469      8130  TIP3      OH2            13.3400896015       -6.8549557466       29.2731253365  SOLV      8119            0.0000000000
     24470      8130  TIP3      H1             12.6926196015       -6.5298057466       29.8986453365  SOLV      8119            0.0000000000
     24471      8130  TIP3      H2             12.8224896015       -7.2951857466       28.5989553365  SOLV      8119            0.0000000000
     24472      8131  TIP3      OH2            15.3630496015      -12.6166057466       18.4096553365  SOLV      8120            0.0000000000
     24473      8131  TIP3      H1             14.8411596015      -12.2601957466       17.6907453365  SOLV      8120            0.0000000000
     24474      8131  TIP3      H2             15.3299696015      -11.9418257466       19.0877453365  SOLV      8120            0.0000000000
     24475      8132  TIP3      OH2            13.7119496015      -15.3770457466       16.9603653365  SOLV      8121            0.0000000000
     24476      8132  TIP3      H1             13.8083896015      -14.7103457466       16.2803353365  SOLV      8121            0.0000000000
     24477      8132  TIP3      H2             13.5719096015      -16.1924157466       16.4789153365  SOLV      8121            0.0000000000
     24478      8133  TIP3      OH2            12.8814196015      -13.9968057466       22.5813953365  SOLV      8122            0.0000000000
     24479      8133  TIP3      H1             12.7312996015      -14.9419457466       22.5611753365  SOLV      8122            0.0000000000
     24480      8133  TIP3      H2             12.5278696015      -13.7156657466       23.4253053365  SOLV      8122            0.0000000000
     24481      8134  TIP3      OH2            -2.0833403985      -11.9185857466       26.5917753365  SOLV      8123            0.0000000000
     24482      8134  TIP3      H1             -1.8990503985      -12.0004157466       25.6560653365  SOLV      8123            0.0000000000
     24483      8134  TIP3      H2             -1.2340503985      -12.0428857466       27.0154153365  SOLV      8123            0.0000000000
     24484      8135  TIP3      OH2            13.7377096015      -12.0264757466       32.2202253365  SOLV      8124            0.0000000000
     24485      8135  TIP3      H1             14.3204396015      -12.7612457466       32.4119453365  SOLV      8124            0.0000000000
     24486      8135  TIP3      H2             14.3016396015      -11.2544457466       32.2668053365  SOLV      8124            0.0000000000
     24487      8136  TIP3      OH2            15.2344196015      -14.1238957466       32.9047653365  SOLV      8125            0.0000000000
     24488      8136  TIP3      H1             14.3710896015      -14.5026857466       32.7392353365  SOLV      8125            0.0000000000
     24489      8136  TIP3      H2             15.8387896015      -14.8624157466       32.8303453365  SOLV      8125            0.0000000000
     24490      8137  TIP3      OH2            12.9593296015      -17.9690657466       16.0779153365  SOLV      8126            0.0000000000
     24491      8137  TIP3      H1             13.5699096015      -18.3403857466       16.7147353365  SOLV      8126            0.0000000000
     24492      8137  TIP3      H2             12.1224796015      -18.3903757466       16.2739153365  SOLV      8126            0.0000000000
     24493      8138  TIP3      OH2            12.5918996015      -16.4142257466       21.0439053365  SOLV      8127            0.0000000000
     24494      8138  TIP3      H1             12.8716096015      -17.3211857466       21.1680753365  SOLV      8127            0.0000000000
     24495      8138  TIP3      H2             13.3510696015      -15.9800757466       20.6548253365  SOLV      8127            0.0000000000
     24496      8139  TIP3      OH2            13.2037296015      -15.8324857466       26.4797953365  SOLV      8128            0.0000000000
     24497      8139  TIP3      H1             14.1365296015      -15.6204957466       26.4453953365  SOLV      8128            0.0000000000
     24498      8139  TIP3      H2             12.9684796015      -15.7312757466       27.4020953365  SOLV      8128            0.0000000000
     24499      8140  TIP3      OH2            13.2329196015      -15.0959557466       29.2557353365  SOLV      8129            0.0000000000
     24500      8140  TIP3      H1             12.3900496015      -14.8279157466       29.6217153365  SOLV      8129            0.0000000000
     24501      8140  TIP3      H2             13.6753496015      -14.2737657466       29.0448453365  SOLV      8129            0.0000000000
     24502      8141  TIP3      OH2            -2.4858603985      -16.6480857466       32.7326553365  SOLV      8130            0.0000000000
     24503      8141  TIP3      H1             -1.5663703985      -16.7702557466       32.9689653365  SOLV      8130            0.0000000000
     24504      8141  TIP3      H2             -2.9354103985      -17.3981157466       33.1220053365  SOLV      8130            0.0000000000
     24505      8142  TIP3      OH2            13.2053796015      -19.1512957466       21.0921053365  SOLV      8131            0.0000000000
     24506      8142  TIP3      H1             13.3878796015      -19.6001457466       21.9176053365  SOLV      8131            0.0000000000
     24507      8142  TIP3      H2             12.6056696015      -19.7358557466       20.6285653365  SOLV      8131            0.0000000000
     24508      8143  TIP3      OH2            -1.2646103985      -18.3359257466       25.6239453365  SOLV      8132            0.0000000000
     24509      8143  TIP3      H1             -0.8194503985      -19.1276757466       25.9259153365  SOLV      8132            0.0000000000
     24510      8143  TIP3      H2             -0.7983103985      -17.6194057466       26.0545053365  SOLV      8132            0.0000000000
     24511      8144  TIP3      OH2            -2.9605803985      -15.3366257466       26.6929653365  SOLV      8133            0.0000000000
     24512      8144  TIP3      H1             -2.4686003985      -15.5575757466       25.9021653365  SOLV      8133            0.0000000000
     24513      8144  TIP3      H2             -2.5984903985      -14.4962857466       26.9739153365  SOLV      8133            0.0000000000
     24514      8145  TIP3      OH2            15.0357996015      -19.0064757466       32.9583653365  SOLV      8134            0.0000000000
     24515      8145  TIP3      H1             14.1183696015      -18.7357657466       32.9227153365  SOLV      8134            0.0000000000
     24516      8145  TIP3      H2             15.1587396015      -19.5416357466       32.1743353365  SOLV      8134            0.0000000000
     24517      8146  TIP3      OH2            15.0719996015      -19.0834857466       17.6201353365  SOLV      8135            0.0000000000
     24518      8146  TIP3      H1             15.4842596015      -19.8049157466       17.1449353365  SOLV      8135            0.0000000000
     24519      8146  TIP3      H2             15.7536496015      -18.4140257466       17.6785653365  SOLV      8135            0.0000000000
     24520      8147  TIP3      OH2            -2.6469303985      -19.0787157466       20.7472053365  SOLV      8136            0.0000000000
     24521      8147  TIP3      H1             -3.5720903985      -18.8700557466       20.6177553365  SOLV      8136            0.0000000000
     24522      8147  TIP3      H2             -2.1929403985      -18.5946357466       20.0574353365  SOLV      8136            0.0000000000
     24523      8148  TIP3      OH2            12.1237896015       -4.0945457466       22.6929453365  SOLV      8137            0.0000000000
     24524      8148  TIP3      H1             12.7760796015       -4.4423357466       22.0848553365  SOLV      8137            0.0000000000
     24525      8148  TIP3      H2             12.6341696015       -3.6062257466       23.3389153365  SOLV      8137            0.0000000000
     24526      8149  TIP3      OH2            -2.6833903985      -20.3408157466       29.0914553365  SOLV      8138            0.0000000000
     24527      8149  TIP3      H1             -3.3483403985      -20.5867857466       29.7345453365  SOLV      8138            0.0000000000
     24528      8149  TIP3      H2             -3.1262603985      -19.7187757466       28.5142553365  SOLV      8138            0.0000000000
     24529      8150  TIP3      OH2            -0.4914603985       -7.1654057466       33.2360353365  SOLV      8139            0.0000000000
     24530      8150  TIP3      H1             -1.3122103985       -6.9907557466       32.7755053365  SOLV      8139            0.0000000000
     24531      8150  TIP3      H2             -0.7436803985       -7.2389357466       34.1564753365  SOLV      8139            0.0000000000
     24532      8151  TIP3      OH2             2.4628296015       -6.1912857466       29.4944353365  SOLV      8140            0.0000000000
     24533      8151  TIP3      H1              2.0379396015       -5.3814357466       29.2118953365  SOLV      8140            0.0000000000
     24534      8151  TIP3      H2              3.3671096015       -6.1058757466       29.1924153365  SOLV      8140            0.0000000000
     24535      8152  TIP3      OH2             6.7739696015       -4.7922857466       32.4538053365  SOLV      8141            0.0000000000
     24536      8152  TIP3      H1              6.9587196015       -5.1256757466       33.3318353365  SOLV      8141            0.0000000000
     24537      8152  TIP3      H2              7.6204196015       -4.4824257466       32.1317253365  SOLV      8141            0.0000000000
     24538      8153  TIP3      OH2             9.1190096015       -3.5063957466       31.6979453365  SOLV      8142            0.0000000000
     24539      8153  TIP3      H1              9.7958996015       -4.1391657466       31.4578653365  SOLV      8142            0.0000000000
     24540      8153  TIP3      H2              9.4408896015       -3.1053457466       32.5052753365  SOLV      8142            0.0000000000
     24541      8154  TIP3      OH2            14.0363896015      -20.9168457466       30.7774453365  SOLV      8143            0.0000000000
     24542      8154  TIP3      H1             13.2237396015      -20.5918157466       30.3899153365  SOLV      8143            0.0000000000
     24543      8154  TIP3      H2             14.2692396015      -21.6769957466       30.2443553365  SOLV      8143            0.0000000000
     24544      8155  TIP3      OH2            -0.1355003985       -2.9348957466       29.5419653365  SOLV      8144            0.0000000000
     24545      8155  TIP3      H1             -0.8558603985       -2.4947957466       29.0907353365  SOLV      8144            0.0000000000
     24546      8155  TIP3      H2             -0.5011003985       -3.1854257466       30.3903653365  SOLV      8144            0.0000000000
     24547      8156  TIP3      OH2             2.3317596015       -3.3345057466       28.5716853365  SOLV      8145            0.0000000000
     24548      8156  TIP3      H1              1.4669796015       -3.2626557466       28.9756953365  SOLV      8145            0.0000000000
     24549      8156  TIP3      H2              2.2766596015       -2.7877757466       27.7879353365  SOLV      8145            0.0000000000
     24550      8157  TIP3      OH2             7.0423196015       -3.4466157466       27.7472853365  SOLV      8146            0.0000000000
     24551      8157  TIP3      H1              6.5857196015       -2.9176457466       27.0931253365  SOLV      8146            0.0000000000
     24552      8157  TIP3      H2              7.2051196015       -2.8434757466       28.4725153365  SOLV      8146            0.0000000000
     24553      8158  TIP3      OH2             9.3699496015       -4.5686557466       28.6923153365  SOLV      8147            0.0000000000
     24554      8158  TIP3      H1              8.4653196015       -4.4036357466       28.4265253365  SOLV      8147            0.0000000000
     24555      8158  TIP3      H2              9.7988096015       -3.7154357466       28.6266553365  SOLV      8147            0.0000000000
     24556      8159  TIP3      OH2            11.9741396015       -2.9987457466       28.9870953365  SOLV      8148            0.0000000000
     24557      8159  TIP3      H1             11.7923396015       -2.0828557466       28.7765853365  SOLV      8148            0.0000000000
     24558      8159  TIP3      H2             12.1509196015       -3.4090357466       28.1405553365  SOLV      8148            0.0000000000
     24559      8160  TIP3      OH2            -0.7206903985       -4.3116457466       26.4521453365  SOLV      8149            0.0000000000
     24560      8160  TIP3      H1             -0.7390903985       -4.7371357466       27.3093753365  SOLV      8149            0.0000000000
     24561      8160  TIP3      H2              0.0840996015       -4.6301457466       26.0433653365  SOLV      8149            0.0000000000
     24562      8161  TIP3      OH2             1.4206196015       -5.6017757466       25.1071353365  SOLV      8150            0.0000000000
     24563      8161  TIP3      H1              1.2016896015       -6.5180357466       25.2767353365  SOLV      8150            0.0000000000
     24564      8161  TIP3      H2              2.2448396015       -5.4617357466       25.5732753365  SOLV      8150            0.0000000000
     24565      8162  TIP3      OH2             3.9578696015       -5.1318457466       25.9559353365  SOLV      8151            0.0000000000
     24566      8162  TIP3      H1              4.1704396015       -6.0199457466       25.6690253365  SOLV      8151            0.0000000000
     24567      8162  TIP3      H2              4.0223796015       -5.1660757466       26.9103353365  SOLV      8151            0.0000000000
     24568      8163  TIP3      OH2             7.4662396015      -19.4677857466       25.1002653365  SOLV      8152            0.0000000000
     24569      8163  TIP3      H1              6.7919196015      -20.0972257466       25.3558453365  SOLV      8152            0.0000000000
     24570      8163  TIP3      H2              8.0301596015      -19.9518957466       24.4970553365  SOLV      8152            0.0000000000
     24571      8164  TIP3      OH2            12.6089596015      -21.3603857466       25.2129753365  SOLV      8153            0.0000000000
     24572      8164  TIP3      H1             13.2127196015      -20.8128457466       24.7110753365  SOLV      8153            0.0000000000
     24573      8164  TIP3      H2             11.7391596015      -21.0413457466       24.9723853365  SOLV      8153            0.0000000000
     24574      8165  TIP3      OH2            14.3359996015      -20.2215157466       23.5460653365  SOLV      8154            0.0000000000
     24575      8165  TIP3      H1             14.9477496015      -20.7359457466       23.0194253365  SOLV      8154            0.0000000000
     24576      8165  TIP3      H2             14.7183396015      -19.3443057466       23.5695053365  SOLV      8154            0.0000000000
     24577      8166  TIP3      OH2            -0.2070103985      -20.8337557466       22.9222553365  SOLV      8155            0.0000000000
     24578      8166  TIP3      H1             -0.9840303985      -21.0682657466       22.4148453365  SOLV      8155            0.0000000000
     24579      8166  TIP3      H2              0.3233496015      -21.6305457466       22.9310553365  SOLV      8155            0.0000000000
     24580      8167  TIP3      OH2            -1.3706703985      -21.0359457466       18.7258653365  SOLV      8156            0.0000000000
     24581      8167  TIP3      H1             -0.9316003985      -20.4248957466       18.1342153365  SOLV      8156            0.0000000000
     24582      8167  TIP3      H2             -2.0044303985      -20.4975357466       19.1998653365  SOLV      8156            0.0000000000
     24583      8168  TIP3      OH2             4.3722496015      -20.9070457466       22.7355653365  SOLV      8157            0.0000000000
     24584      8168  TIP3      H1              5.2465896015      -20.5186157466       22.7059953365  SOLV      8157            0.0000000000
     24585      8168  TIP3      H2              4.2363296015      -21.1222657466       23.6582853365  SOLV      8157            0.0000000000
     24586      8169  TIP3      OH2             9.9290896015      -20.8770657466       24.3847353365  SOLV      8158            0.0000000000
     24587      8169  TIP3      H1             10.0052496015      -20.7819057466       23.4353353365  SOLV      8158            0.0000000000
     24588      8169  TIP3      H2              9.6540096015      -21.7847757466       24.5136453365  SOLV      8158            0.0000000000
     24589      8170  TIP3      OH2            11.2823496015      -20.8512857466       20.0772353365  SOLV      8159            0.0000000000
     24590      8170  TIP3      H1             10.5794596015      -20.2363657466       19.8673753365  SOLV      8159            0.0000000000
     24591      8170  TIP3      H2             10.8374896015      -21.6886157466       20.2083253365  SOLV      8159            0.0000000000
     24592      8171  TIP3      OH2            -1.4697203985       -5.0877257466       19.6233753365  SOLV      8160            0.0000000000
     24593      8171  TIP3      H1             -2.1547303985       -5.1258357466       18.9558853365  SOLV      8160            0.0000000000
     24594      8171  TIP3      H2             -1.4660003985       -4.1749657466       19.9115853365  SOLV      8160            0.0000000000
     24595      8172  TIP3      OH2             0.4902396015      -19.1197957466       17.1682753365  SOLV      8161            0.0000000000
     24596      8172  TIP3      H1              0.9815796015      -19.7495557466       16.6408253365  SOLV      8161            0.0000000000
     24597      8172  TIP3      H2              1.1138696015      -18.8238557466       17.8313953365  SOLV      8161            0.0000000000
     24598      8173  TIP3      OH2             5.5162496015      -18.8266457466       19.6253253365  SOLV      8162            0.0000000000
     24599      8173  TIP3      H1              5.6943796015      -19.4733257466       20.3081853365  SOLV      8162            0.0000000000
     24600      8173  TIP3      H2              5.4628696015      -17.9928757466       20.0924353365  SOLV      8162            0.0000000000
     24601      8174  TIP3      OH2             7.3946296015       -3.8782357466       18.0209953365  SOLV      8163            0.0000000000
     24602      8174  TIP3      H1              8.2606496015       -3.5114957466       17.8428153365  SOLV      8163            0.0000000000
     24603      8174  TIP3      H2              7.1479096015       -4.3174357466       17.2070753365  SOLV      8163            0.0000000000
     24604      8175  TIP3      OH2            14.1035896015       -4.3152057466       20.7001053365  SOLV      8164            0.0000000000
     24605      8175  TIP3      H1             13.9092996015       -5.0629957466       20.1350653365  SOLV      8164            0.0000000000
     24606      8175  TIP3      H2             14.0645996015       -3.5571957466       20.1168953365  SOLV      8164            0.0000000000
     24607      8176  TIP3      OH2            -0.2492103985      -20.3195657466       32.4398753365  SOLV      8165            0.0000000000
     24608      8176  TIP3      H1             -0.6153903985      -21.0853057466       32.8823453365  SOLV      8165            0.0000000000
     24609      8176  TIP3      H2              0.6636396015      -20.2905457466       32.7263853365  SOLV      8165            0.0000000000
     24610      8177  TIP3      OH2             1.7238696015      -20.9691257466       33.9755853365  SOLV      8166            0.0000000000
     24611      8177  TIP3      H1              2.6222296015      -21.2431057466       33.7909253365  SOLV      8166            0.0000000000
     24612      8177  TIP3      H2              1.3371796015      -21.7115257466       34.4398453365  SOLV      8166            0.0000000000
     24613      8178  TIP3      OH2             0.3483996015       -4.1676457466       16.6485853365  SOLV      8167            0.0000000000
     24614      8178  TIP3      H1              0.0808596015       -3.8813557466       17.5218953365  SOLV      8167            0.0000000000
     24615      8178  TIP3      H2              1.1196596015       -4.7137257466       16.8008353365  SOLV      8167            0.0000000000
     24616      8179  TIP3      OH2            10.1450996015      -21.6365957466       34.1578653365  SOLV      8168            0.0000000000
     24617      8179  TIP3      H1             10.2218196015      -22.0625257466       35.0116353365  SOLV      8168            0.0000000000
     24618      8179  TIP3      H2             11.0387596015      -21.6231257466       33.8152153365  SOLV      8168            0.0000000000
     24619      8180  TIP3      OH2            13.3212096015       -5.5639657466       32.8502853365  SOLV      8169            0.0000000000
     24620      8180  TIP3      H1             12.5393996015       -5.7501657466       32.3303453365  SOLV      8169            0.0000000000
     24621      8180  TIP3      H2             13.2491996015       -4.6345357466       33.0675353365  SOLV      8169            0.0000000000
     24622      8181  TIP3      OH2            27.7272496015      -11.6775257466       22.8810053365  SOLV      8170            0.0000000000
     24623      8181  TIP3      H1             27.8163596015      -10.7337057466       22.7487153365  SOLV      8170            0.0000000000
     24624      8181  TIP3      H2             27.0890096015      -11.9528857466       22.2229453365  SOLV      8170            0.0000000000
     24625      8182  TIP3      OH2            26.6603796015      -12.4224557466       26.2998253365  SOLV      8171            0.0000000000
     24626      8182  TIP3      H1             26.6221296015      -13.0688257466       27.0047853365  SOLV      8171            0.0000000000
     24627      8182  TIP3      H2             26.3380296015      -12.8890157466       25.5286953365  SOLV      8171            0.0000000000
     24628      8183  TIP3      OH2            19.0288796015      -12.8082457466       27.8928153365  SOLV      8172            0.0000000000
     24629      8183  TIP3      H1             19.0700896015      -13.4339157466       28.6160553365  SOLV      8172            0.0000000000
     24630      8183  TIP3      H2             19.7316496015      -12.1843857466       28.0748553365  SOLV      8172            0.0000000000
     24631      8184  TIP3      OH2            30.3663996015       -9.4834157466       24.6013353365  SOLV      8173            0.0000000000
     24632      8184  TIP3      H1             29.9256696015      -10.2038157466       25.0518953365  SOLV      8173            0.0000000000
     24633      8184  TIP3      H2             30.3533696015       -8.7626957466       25.2311053365  SOLV      8173            0.0000000000
     24634      8185  TIP3      OH2            19.9521896015       -8.3583557466       26.4277253365  SOLV      8174            0.0000000000
     24635      8185  TIP3      H1             19.5827096015       -9.1603057466       26.0581553365  SOLV      8174            0.0000000000
     24636      8185  TIP3      H2             20.8932996015       -8.5268657466       26.4740653365  SOLV      8174            0.0000000000
     24637      8186  TIP3      OH2            16.5622396015      -14.6980957466       21.8206053365  SOLV      8175            0.0000000000
     24638      8186  TIP3      H1             16.1145796015      -13.8522257466       21.8022553365  SOLV      8175            0.0000000000
     24639      8186  TIP3      H2             16.0013596015      -15.2776757466       21.3051153365  SOLV      8175            0.0000000000
     24640      8187  TIP3      OH2            17.2728496015      -12.5361357466       23.9464053365  SOLV      8176            0.0000000000
     24641      8187  TIP3      H1             17.4861996015      -13.3059757466       24.4737053365  SOLV      8176            0.0000000000
     24642      8187  TIP3      H2             18.0106096015      -12.4464657466       23.3431653365  SOLV      8176            0.0000000000
     24643      8188  TIP3      OH2            27.4779496015       -4.3792457466       24.8133753365  SOLV      8177            0.0000000000
     24644      8188  TIP3      H1             28.0975896015       -5.0557757466       24.5402953365  SOLV      8177            0.0000000000
     24645      8188  TIP3      H2             27.2696896015       -4.5971657466       25.7218653365  SOLV      8177            0.0000000000
     24646      8189  TIP3      OH2            25.0498196015       -9.9903157466       26.7059253365  SOLV      8178            0.0000000000
     24647      8189  TIP3      H1             25.3536096015      -10.6761757466       26.1113353365  SOLV      8178            0.0000000000
     24648      8189  TIP3      H2             25.7712196015       -9.8714457466       27.3237253365  SOLV      8178            0.0000000000
     24649      8190  TIP3      OH2            28.1905196015      -15.5960757466       27.0334053365  SOLV      8179            0.0000000000
     24650      8190  TIP3      H1             28.3331096015      -16.5423757466       27.0535653365  SOLV      8179            0.0000000000
     24651      8190  TIP3      H2             28.0844196015      -15.3890957466       26.1048953365  SOLV      8179            0.0000000000
     24652      8191  TIP3      OH2            29.0676196015      -17.3638757466       22.7067153365  SOLV      8180            0.0000000000
     24653      8191  TIP3      H1             29.7140496015      -17.6925557466       23.3314753365  SOLV      8180            0.0000000000
     24654      8191  TIP3      H2             29.5775596015      -16.8459757466       22.0838553365  SOLV      8180            0.0000000000
     24655      8192  TIP3      OH2            17.9654996015      -15.0978557466       25.0680253365  SOLV      8181            0.0000000000
     24656      8192  TIP3      H1             18.6191596015      -15.6476857466       25.5000353365  SOLV      8181            0.0000000000
     24657      8192  TIP3      H2             17.9894296015      -15.3719557466       24.1512253365  SOLV      8181            0.0000000000
     24658      8193  TIP3      OH2            20.1555396015      -18.5765957466       28.3799653365  SOLV      8182            0.0000000000
     24659      8193  TIP3      H1             19.9367096015      -18.0465357466       27.6135653365  SOLV      8182            0.0000000000
     24660      8193  TIP3      H2             19.4876296015      -18.3500457466       29.0271053365  SOLV      8182            0.0000000000
     24661      8194  TIP3      OH2            27.5245196015       -9.0764857466       21.9238753365  SOLV      8183            0.0000000000
     24662      8194  TIP3      H1             27.2290296015       -9.3992557466       21.0725653365  SOLV      8183            0.0000000000
     24663      8194  TIP3      H2             27.2002996015       -8.1768157466       21.9651353365  SOLV      8183            0.0000000000
     24664      8195  TIP3      OH2            22.7246796015      -10.9010257466       28.6673353365  SOLV      8184            0.0000000000
     24665      8195  TIP3      H1             21.9845896015      -10.3028757466       28.7708553365  SOLV      8184            0.0000000000
     24666      8195  TIP3      H2             23.4386296015      -10.3470657466       28.3516953365  SOLV      8184            0.0000000000
     24667      8196  TIP3      OH2            30.8314596015      -18.0729457466       24.6873053365  SOLV      8185            0.0000000000
     24668      8196  TIP3      H1             30.6162596015      -18.8386057466       25.2199053365  SOLV      8185            0.0000000000
     24669      8196  TIP3      H2             31.4871996015      -17.6004857466       25.2001553365  SOLV      8185            0.0000000000
     24670      8197  TIP3      OH2            19.7492696015      -16.6844157466       26.3321853365  SOLV      8186            0.0000000000
     24671      8197  TIP3      H1             20.3628996015      -16.0516557466       26.7054253365  SOLV      8186            0.0000000000
     24672      8197  TIP3      H2             20.2613396015      -17.1569157466       25.6758753365  SOLV      8186            0.0000000000
     24673      8198  TIP3      OH2            21.1321096015       -8.9367257466       29.4544853365  SOLV      8187            0.0000000000
     24674      8198  TIP3      H1             21.1268696015       -8.0573757466       29.0764153365  SOLV      8187            0.0000000000
     24675      8198  TIP3      H2             20.2785196015       -9.0203157466       29.8794753365  SOLV      8187            0.0000000000
     24676      8199  TIP3      OH2            17.2531996015       -9.2659357466       20.2364153365  SOLV      8188            0.0000000000
     24677      8199  TIP3      H1             16.9812896015       -9.0368357466       19.3477053365  SOLV      8188            0.0000000000
     24678      8199  TIP3      H2             17.2987696015       -8.4280557466       20.6969453365  SOLV      8188            0.0000000000
     24679      8200  TIP3      OH2            30.8781696015       -7.6443457466       26.9492653365  SOLV      8189            0.0000000000
     24680      8200  TIP3      H1             29.9365396015       -7.5859557466       27.1109553365  SOLV      8189            0.0000000000
     24681      8200  TIP3      H2             31.1547796015       -6.7382957466       26.8122353365  SOLV      8189            0.0000000000
     24682      8201  TIP3      OH2            24.1820096015      -21.2710857466       25.8324553365  SOLV      8190            0.0000000000
     24683      8201  TIP3      H1             24.0644296015      -22.2194857466       25.7782853365  SOLV      8190            0.0000000000
     24684      8201  TIP3      H2             23.3270196015      -20.9384757466       26.1055653365  SOLV      8190            0.0000000000
     24685      8202  TIP3      OH2            29.1302896015       -5.8629957466       23.5744253365  SOLV      8191            0.0000000000
     24686      8202  TIP3      H1             29.5555196015       -6.5702057466       23.0893853365  SOLV      8191            0.0000000000
     24687      8202  TIP3      H2             29.4472896015       -5.0617257466       23.1576453365  SOLV      8191            0.0000000000
     24688      8203  TIP3      OH2            30.2899396015       -7.9621457466       22.0830853365  SOLV      8192            0.0000000000
     24689      8203  TIP3      H1             30.0324196015       -8.6521357466       21.4716753365  SOLV      8192            0.0000000000
     24690      8203  TIP3      H2             30.3610196015       -8.4050257466       22.9286753365  SOLV      8192            0.0000000000
     24691      8204  TIP3      OH2            31.9759596015       -9.3954757466       30.5604353365  SOLV      8193            0.0000000000
     24692      8204  TIP3      H1             32.1155896015       -9.9872257466       29.8211353365  SOLV      8193            0.0000000000
     24693      8204  TIP3      H2             32.1432396015       -8.5228857466       30.2043153365  SOLV      8193            0.0000000000
     24694      8205  TIP3      OH2            26.4484996015      -12.4335257466       20.3330353365  SOLV      8194            0.0000000000
     24695      8205  TIP3      H1             25.7370496015      -11.8985557466       19.9810853365  SOLV      8194            0.0000000000
     24696      8205  TIP3      H2             27.1394596015      -12.3783157466       19.6729253365  SOLV      8194            0.0000000000
     24697      8206  TIP3      OH2            26.5024196015      -13.9760957466       17.3715353365  SOLV      8195            0.0000000000
     24698      8206  TIP3      H1             27.2034096015      -13.9534057466       18.0229353365  SOLV      8195            0.0000000000
     24699      8206  TIP3      H2             26.8047096015      -14.6041257466       16.7154653365  SOLV      8195            0.0000000000
     24700      8207  TIP3      OH2            33.8178896015      -13.0556757466       28.6264753365  SOLV      8196            0.0000000000
     24701      8207  TIP3      H1             33.1652996015      -12.3611157466       28.7155653365  SOLV      8196            0.0000000000
     24702      8207  TIP3      H2             34.2829196015      -12.8455857466       27.8166353365  SOLV      8196            0.0000000000
     24703      8208  TIP3      OH2            29.8542696015      -12.2241957466       21.2846253365  SOLV      8197            0.0000000000
     24704      8208  TIP3      H1             29.1223696015      -11.9958257466       21.8576853365  SOLV      8197            0.0000000000
     24705      8208  TIP3      H2             30.3014896015      -12.9379257466       21.7393753365  SOLV      8197            0.0000000000
     24706      8209  TIP3      OH2            29.7516196015      -14.0499357466       30.3523253365  SOLV      8198            0.0000000000
     24707      8209  TIP3      H1             29.8315296015      -13.2864957466       30.9241753365  SOLV      8198            0.0000000000
     24708      8209  TIP3      H2             29.1503896015      -13.7706957466       29.6618353365  SOLV      8198            0.0000000000
     24709      8210  TIP3      OH2            21.4996396015      -11.5935757466       23.1671253365  SOLV      8199            0.0000000000
     24710      8210  TIP3      H1             21.1691596015      -11.9642357466       22.3488253365  SOLV      8199            0.0000000000
     24711      8210  TIP3      H2             22.0880496015      -12.2641757466       23.5139553365  SOLV      8199            0.0000000000
     24712      8211  TIP3      OH2            22.8663896015       -8.1655157466       25.8483453365  SOLV      8200            0.0000000000
     24713      8211  TIP3      H1             22.7715196015       -8.7442057466       25.0918053365  SOLV      8200            0.0000000000
     24714      8211  TIP3      H2             23.5957496015       -8.5369457466       26.3446253365  SOLV      8200            0.0000000000
     24715      8212  TIP3      OH2            21.8661896015      -12.8250157466       26.8006253365  SOLV      8201            0.0000000000
     24716      8212  TIP3      H1             22.4314396015      -12.7035957466       26.0377453365  SOLV      8201            0.0000000000
     24717      8212  TIP3      H2             22.1850796015      -12.1875157466       27.4394753365  SOLV      8201            0.0000000000
     24718      8213  TIP3      OH2            28.1754096015       -7.3218257466       27.5346753365  SOLV      8202            0.0000000000
     24719      8213  TIP3      H1             27.9350696015       -6.6595157466       28.1825953365  SOLV      8202            0.0000000000
     24720      8213  TIP3      H2             27.9772296015       -8.1563057466       27.9596353365  SOLV      8202            0.0000000000
     24721      8214  TIP3      OH2            22.7462596015       -8.4257457466       31.5178153365  SOLV      8203            0.0000000000
     24722      8214  TIP3      H1             22.4350096015       -7.6434257466       31.9731353365  SOLV      8203            0.0000000000
     24723      8214  TIP3      H2             22.0962796015       -8.5788357466       30.8320153365  SOLV      8203            0.0000000000
     24724      8215  TIP3      OH2            28.7252196015      -13.0619057466       18.9697453365  SOLV      8204            0.0000000000
     24725      8215  TIP3      H1             29.3047696015      -12.9118757466       19.7166353365  SOLV      8204            0.0000000000
     24726      8215  TIP3      H2             29.1392196015      -12.5911657466       18.2463853365  SOLV      8204            0.0000000000
     24727      8216  TIP3      OH2            19.6662496015      -12.2276357466       30.7463853365  SOLV      8205            0.0000000000
     24728      8216  TIP3      H1             19.7365696015      -11.5769557466       31.4448853365  SOLV      8205            0.0000000000
     24729      8216  TIP3      H2             18.7754696015      -12.1248857466       30.4114753365  SOLV      8205            0.0000000000
     24730      8217  TIP3      OH2            26.4517096015       -6.3250557466       22.4050553365  SOLV      8206            0.0000000000
     24731      8217  TIP3      H1             26.9254696015       -6.0294257466       23.1824753365  SOLV      8206            0.0000000000
     24732      8217  TIP3      H2             25.8886396015       -5.5868957466       22.1720153365  SOLV      8206            0.0000000000
     24733      8218  TIP3      OH2            20.9858496015       -6.3542457466       32.2811953365  SOLV      8207            0.0000000000
     24734      8218  TIP3      H1             20.9933796015       -6.4902757466       31.3337453365  SOLV      8207            0.0000000000
     24735      8218  TIP3      H2             20.0698896015       -6.4714357466       32.5331953365  SOLV      8207            0.0000000000
     24736      8219  TIP3      OH2            20.4899096015      -12.5241457466       20.7564053365  SOLV      8208            0.0000000000
     24737      8219  TIP3      H1             20.1980396015      -11.7559757466       20.2655353365  SOLV      8208            0.0000000000
     24738      8219  TIP3      H2             19.8154296015      -13.1835257466       20.5935453365  SOLV      8208            0.0000000000
     24739      8220  TIP3      OH2            33.6131996015       -6.9456257466       17.1591053365  SOLV      8209            0.0000000000
     24740      8220  TIP3      H1             33.6865496015       -6.0066057466       17.3296353365  SOLV      8209            0.0000000000
     24741      8220  TIP3      H2             34.5187096015       -7.2507657466       17.1028353365  SOLV      8209            0.0000000000
     24742      8221  TIP3      OH2            16.5829196015      -10.1612257466       29.5713853365  SOLV      8210            0.0000000000
     24743      8221  TIP3      H1             16.0817596015      -10.1892857466       28.7563553365  SOLV      8210            0.0000000000
     24744      8221  TIP3      H2             16.5882896015      -11.0669057466       29.8811153365  SOLV      8210            0.0000000000
     24745      8222  TIP3      OH2            16.3331896015       -7.3808457466       26.4554053365  SOLV      8211            0.0000000000
     24746      8222  TIP3      H1             17.2792496015       -7.5251457466       26.4363553365  SOLV      8211            0.0000000000
     24747      8222  TIP3      H2             16.2208196015       -6.5965657466       26.9925253365  SOLV      8211            0.0000000000
     24748      8223  TIP3      OH2            25.5094396015       -7.1409557466       31.0139153365  SOLV      8212            0.0000000000
     24749      8223  TIP3      H1             25.5968996015       -6.3144957466       31.4888253365  SOLV      8212            0.0000000000
     24750      8223  TIP3      H2             24.6459496015       -7.4705757466       31.2628453365  SOLV      8212            0.0000000000
     24751      8224  TIP3      OH2            25.9240196015       -3.3685857466       20.8199753365  SOLV      8213            0.0000000000
     24752      8224  TIP3      H1             25.8486196015       -3.4898657466       19.8734953365  SOLV      8213            0.0000000000
     24753      8224  TIP3      H2             25.9568896015       -2.4193157466       20.9384353365  SOLV      8213            0.0000000000
     24754      8225  TIP3      OH2            19.5773996015       -4.5798857466       22.6008753365  SOLV      8214            0.0000000000
     24755      8225  TIP3      H1             19.7294396015       -4.9278457466       23.4795253365  SOLV      8214            0.0000000000
     24756      8225  TIP3      H2             18.7264396015       -4.9361557466       22.3455953365  SOLV      8214            0.0000000000
     24757      8226  TIP3      OH2            29.0256196015       -4.2145657466       17.8222153365  SOLV      8215            0.0000000000
     24758      8226  TIP3      H1             29.4004596015       -4.9589557466       17.3514753365  SOLV      8215            0.0000000000
     24759      8226  TIP3      H2             29.0299896015       -4.4845057466       18.7405453365  SOLV      8215            0.0000000000
     24760      8227  TIP3      OH2            28.6944296015       -4.2888557466       20.5714353365  SOLV      8216            0.0000000000
     24761      8227  TIP3      H1             27.7594096015       -4.1886657466       20.7501353365  SOLV      8216            0.0000000000
     24762      8227  TIP3      H2             28.9746196015       -4.9982557466       21.1497553365  SOLV      8216            0.0000000000
     24763      8228  TIP3      OH2            18.8319696015       -8.8376857466       30.6146653365  SOLV      8217            0.0000000000
     24764      8228  TIP3      H1             19.0480996015       -9.1991257466       31.4742453365  SOLV      8217            0.0000000000
     24765      8228  TIP3      H2             17.9764396015       -9.2123057466       30.4050153365  SOLV      8217            0.0000000000
     24766      8229  TIP3      OH2            21.4507696015      -20.3676357466       26.6100853365  SOLV      8218            0.0000000000
     24767      8229  TIP3      H1             20.5891396015      -20.4548157466       26.2023753365  SOLV      8218            0.0000000000
     24768      8229  TIP3      H2             21.4283396015      -19.5116257466       27.0378453365  SOLV      8218            0.0000000000
     24769      8230  TIP3      OH2            30.2025296015      -12.0290757466       16.5995353365  SOLV      8219            0.0000000000
     24770      8230  TIP3      H1             30.2446096015      -12.2516857466       15.6695353365  SOLV      8219            0.0000000000
     24771      8230  TIP3      H2             31.0517396015      -11.6303657466       16.7895253365  SOLV      8219            0.0000000000
     24772      8231  TIP3      OH2            25.7752796015      -18.1532557466       17.2698653365  SOLV      8220            0.0000000000
     24773      8231  TIP3      H1             25.5217596015      -18.1340957466       18.1926753365  SOLV      8220            0.0000000000
     24774      8231  TIP3      H2             25.5184896015      -19.0247157466       16.9684853365  SOLV      8220            0.0000000000
     24775      8232  TIP3      OH2            21.5417796015      -15.4021857466       27.7051053365  SOLV      8221            0.0000000000
     24776      8232  TIP3      H1             20.8999896015      -15.4424557466       28.4141153365  SOLV      8221            0.0000000000
     24777      8232  TIP3      H2             21.5789796015      -14.4757157466       27.4674053365  SOLV      8221            0.0000000000
     24778      8233  TIP3      OH2            27.0742396015      -14.7651457466       21.4341853365  SOLV      8222            0.0000000000
     24779      8233  TIP3      H1             26.6652696015      -13.9502857466       21.1426653365  SOLV      8222            0.0000000000
     24780      8233  TIP3      H2             27.7948596015      -14.9051357466       20.8198953365  SOLV      8222            0.0000000000
     24781      8234  TIP3      OH2            28.0790096015      -15.3191057466       24.2481553365  SOLV      8223            0.0000000000
     24782      8234  TIP3      H1             27.8834596015      -14.7134257466       23.5332153365  SOLV      8223            0.0000000000
     24783      8234  TIP3      H2             28.2602696015      -16.1525857466       23.8137853365  SOLV      8223            0.0000000000
     24784      8235  TIP3      OH2            19.2918296015      -15.0818357466       29.5723053365  SOLV      8224            0.0000000000
     24785      8235  TIP3      H1             19.2537696015      -14.6816757466       30.4410153365  SOLV      8224            0.0000000000
     24786      8235  TIP3      H2             18.8009396015      -15.8985957466       29.6625953365  SOLV      8224            0.0000000000
     24787      8236  TIP3      OH2            22.6575696015      -17.7076057466       16.3709053365  SOLV      8225            0.0000000000
     24788      8236  TIP3      H1             22.2266396015      -18.1525957466       17.1006453365  SOLV      8225            0.0000000000
     24789      8236  TIP3      H2             21.9394396015      -17.3359757466       15.8586553365  SOLV      8225            0.0000000000
     24790      8237  TIP3      OH2            15.8999096015      -17.9656557466       23.4227753365  SOLV      8226            0.0000000000
     24791      8237  TIP3      H1             16.5306796015      -17.9944457466       24.1421653365  SOLV      8226            0.0000000000
     24792      8237  TIP3      H2             16.3493396015      -18.3907857466       22.6923653365  SOLV      8226            0.0000000000
     24793      8238  TIP3      OH2            17.1741196015      -17.2194557466       18.8468153365  SOLV      8227            0.0000000000
     24794      8238  TIP3      H1             17.6482896015      -16.6284657466       18.2619053365  SOLV      8227            0.0000000000
     24795      8238  TIP3      H2             16.4567596015      -16.6891657466       19.1938253365  SOLV      8227            0.0000000000
     24796      8239  TIP3      OH2            27.3429296015      -13.6809757466       28.9193953365  SOLV      8228            0.0000000000
     24797      8239  TIP3      H1             27.6664096015      -14.3120057466       28.2764453365  SOLV      8228            0.0000000000
     24798      8239  TIP3      H2             26.9028596015      -14.2157557466       29.5801353365  SOLV      8228            0.0000000000
     24799      8240  TIP3      OH2            18.9485596015      -16.1247957466       22.5302753365  SOLV      8229            0.0000000000
     24800      8240  TIP3      H1             18.0593596015      -16.0252457466       22.1902353365  SOLV      8229            0.0000000000
     24801      8240  TIP3      H2             19.2450496015      -16.9664957466       22.1840653365  SOLV      8229            0.0000000000
     24802      8241  TIP3      OH2            22.6017396015      -16.1245357466       20.1867353365  SOLV      8230            0.0000000000
     24803      8241  TIP3      H1             23.5332896015      -15.9955357466       20.3650453365  SOLV      8230            0.0000000000
     24804      8241  TIP3      H2             22.3867696015      -15.4551057466       19.5372053365  SOLV      8230            0.0000000000
     24805      8242  TIP3      OH2            28.5254096015      -18.5187957466       26.9676953365  SOLV      8231            0.0000000000
     24806      8242  TIP3      H1             27.8485696015      -18.3874857466       27.6316653365  SOLV      8231            0.0000000000
     24807      8242  TIP3      H2             28.0398996015      -18.6738457466       26.1574653365  SOLV      8231            0.0000000000
     24808      8243  TIP3      OH2            21.2757596015      -14.9303157466       17.7533453365  SOLV      8232            0.0000000000
     24809      8243  TIP3      H1             20.7332696015      -15.3099357466       17.0621053365  SOLV      8232            0.0000000000
     24810      8243  TIP3      H2             22.1092496015      -14.7358457466       17.3247553365  SOLV      8232            0.0000000000
     24811      8244  TIP3      OH2            19.4108996015      -10.3731257466       32.8525053365  SOLV      8233            0.0000000000
     24812      8244  TIP3      H1             20.1431396015      -10.1185357466       33.4139553365  SOLV      8233            0.0000000000
     24813      8244  TIP3      H2             18.6307696015      -10.1685857466       33.3680453365  SOLV      8233            0.0000000000
     24814      8245  TIP3      OH2            25.4401896015      -14.9661257466       25.5904753365  SOLV      8234            0.0000000000
     24815      8245  TIP3      H1             26.0045296015      -15.5124657466       25.0434353365  SOLV      8234            0.0000000000
     24816      8245  TIP3      H2             25.2925296015      -15.4879357466       26.3792353365  SOLV      8234            0.0000000000
     24817      8246  TIP3      OH2            20.4421596015      -18.8295157466       22.0089553365  SOLV      8235            0.0000000000
     24818      8246  TIP3      H1             20.1251096015      -19.7319857466       21.9734953365  SOLV      8235            0.0000000000
     24819      8246  TIP3      H2             21.2235696015      -18.8277757466       21.4561153365  SOLV      8235            0.0000000000
     24820      8247  TIP3      OH2            24.0667796015      -16.5775157466       28.0045153365  SOLV      8236            0.0000000000
     24821      8247  TIP3      H1             23.2313096015      -16.1235657466       28.1147553365  SOLV      8236            0.0000000000
     24822      8247  TIP3      H2             24.5908396015      -16.3016657466       28.7565053365  SOLV      8236            0.0000000000
     24823      8248  TIP3      OH2            24.6110396015      -10.3647457466       19.6891553365  SOLV      8237            0.0000000000
     24824      8248  TIP3      H1             23.8661396015      -10.8722157466       19.3669453365  SOLV      8237            0.0000000000
     24825      8248  TIP3      H2             24.4767596015      -10.3159457466       20.6356353365  SOLV      8237            0.0000000000
     24826      8249  TIP3      OH2            31.7609296015      -11.2319257466       28.4759153365  SOLV      8238            0.0000000000
     24827      8249  TIP3      H1             32.4028096015      -10.7752957466       27.9321353365  SOLV      8238            0.0000000000
     24828      8249  TIP3      H2             30.9306196015      -11.1186857466       28.0133253365  SOLV      8238            0.0000000000
     24829      8250  TIP3      OH2            28.5087196015      -17.5507557466       17.8884153365  SOLV      8239            0.0000000000
     24830      8250  TIP3      H1             27.5701396015      -17.4391957466       17.7372953365  SOLV      8239            0.0000000000
     24831      8250  TIP3      H2             28.8059296015      -16.6940657466       18.1949853365  SOLV      8239            0.0000000000
     24832      8251  TIP3      OH2            26.1302496015      -10.1804157466       30.9260653365  SOLV      8240            0.0000000000
     24833      8251  TIP3      H1             25.7848596015      -10.5621757466       31.7330253365  SOLV      8240            0.0000000000
     24834      8251  TIP3      H2             25.9302596015       -9.2470557466       30.9973553365  SOLV      8240            0.0000000000
     24835      8252  TIP3      OH2            29.2270696015      -15.6834857466       19.5491553365  SOLV      8241            0.0000000000
     24836      8252  TIP3      H1             30.1189696015      -15.8209857466       19.8682753365  SOLV      8241            0.0000000000
     24837      8252  TIP3      H2             29.2834296015      -14.8928757466       19.0125053365  SOLV      8241            0.0000000000
     24838      8253  TIP3      OH2            19.7358696015      -11.0697457466       25.4589453365  SOLV      8242            0.0000000000
     24839      8253  TIP3      H1             20.4805896015      -11.0721757466       24.8575953365  SOLV      8242            0.0000000000
     24840      8253  TIP3      H2             19.8135296015      -11.8933657466       25.9404553365  SOLV      8242            0.0000000000
     24841      8254  TIP3      OH2            26.7364496015       -8.9063157466       18.7146153365  SOLV      8243            0.0000000000
     24842      8254  TIP3      H1             26.4412896015       -8.0795257466       19.0960953365  SOLV      8243            0.0000000000
     24843      8254  TIP3      H2             26.0334496015       -9.5256257466       18.9107553365  SOLV      8243            0.0000000000
     24844      8255  TIP3      OH2            16.7438396015      -12.6090557466       30.7737953365  SOLV      8244            0.0000000000
     24845      8255  TIP3      H1             16.9666996015      -13.0270957466       31.6055453365  SOLV      8244            0.0000000000
     24846      8255  TIP3      H2             16.1418496015      -13.2215557466       30.3510753365  SOLV      8244            0.0000000000
     24847      8256  TIP3      OH2            23.7603296015      -13.0920657466       32.9867653365  SOLV      8245            0.0000000000
     24848      8256  TIP3      H1             23.4644096015      -13.2577657466       32.0916753365  SOLV      8245            0.0000000000
     24849      8256  TIP3      H2             24.6918496015      -13.3120357466       32.9761553365  SOLV      8245            0.0000000000
     24850      8257  TIP3      OH2            28.3806096015       -7.7188657466       30.8765653365  SOLV      8246            0.0000000000
     24851      8257  TIP3      H1             27.4800396015       -7.5356057466       30.6089553365  SOLV      8246            0.0000000000
     24852      8257  TIP3      H2             28.4147196015       -7.4599357466       31.7974453365  SOLV      8246            0.0000000000
     24853      8258  TIP3      OH2            32.4071096015       -6.6880357466       19.7090353365  SOLV      8247            0.0000000000
     24854      8258  TIP3      H1             32.0342196015       -7.5136557466       20.0180953365  SOLV      8247            0.0000000000
     24855      8258  TIP3      H2             32.6844596015       -6.8710957466       18.8113753365  SOLV      8247            0.0000000000
     24856      8259  TIP3      OH2            29.5674996015      -11.8800857466       26.7302253365  SOLV      8248            0.0000000000
     24857      8259  TIP3      H1             28.6391896015      -12.1118957466       26.7031553365  SOLV      8248            0.0000000000
     24858      8259  TIP3      H2             30.0186096015      -12.6571057466       26.4001053365  SOLV      8248            0.0000000000
     24859      8260  TIP3      OH2            22.1108096015       -7.5519257466       22.8630953365  SOLV      8249            0.0000000000
     24860      8260  TIP3      H1             22.6380296015       -6.7784857466       22.6629753365  SOLV      8249            0.0000000000
     24861      8260  TIP3      H2             21.2306596015       -7.3270057466       22.5614953365  SOLV      8249            0.0000000000
     24862      8261  TIP3      OH2            17.8655796015      -12.6895157466       17.4503353365  SOLV      8250            0.0000000000
     24863      8261  TIP3      H1             18.4815696015      -12.0627957466       17.8298153365  SOLV      8250            0.0000000000
     24864      8261  TIP3      H2             17.0038396015      -12.3735357466       17.7219853365  SOLV      8250            0.0000000000
     24865      8262  TIP3      OH2            23.5380396015       -9.8889357466       22.4395253365  SOLV      8251            0.0000000000
     24866      8262  TIP3      H1             23.2970396015       -8.9634957466       22.4810553365  SOLV      8251            0.0000000000
     24867      8262  TIP3      H2             22.7973996015      -10.3478057466       22.8359153365  SOLV      8251            0.0000000000
     24868      8263  TIP3      OH2            24.0526996015       -5.7395757466       28.7546353365  SOLV      8252            0.0000000000
     24869      8263  TIP3      H1             24.4151696015       -4.8850157466       28.5210753365  SOLV      8252            0.0000000000
     24870      8263  TIP3      H2             24.5842196015       -6.0314157466       29.4952653365  SOLV      8252            0.0000000000
     24871      8264  TIP3      OH2            22.2211196015       -4.8671757466       21.9847453365  SOLV      8253            0.0000000000
     24872      8264  TIP3      H1             21.2711696015       -4.7614357466       22.0360753365  SOLV      8253            0.0000000000
     24873      8264  TIP3      H2             22.5729296015       -4.0464357466       22.3294953365  SOLV      8253            0.0000000000
     24874      8265  TIP3      OH2            27.5967796015       -9.6405057466       28.4551953365  SOLV      8254            0.0000000000
     24875      8265  TIP3      H1             27.1709096015       -9.8683357466       29.2815953365  SOLV      8254            0.0000000000
     24876      8265  TIP3      H2             28.1773596015      -10.3793257466       28.2727253365  SOLV      8254            0.0000000000
     24877      8266  TIP3      OH2            29.7996696015       -8.7114557466       17.5290953365  SOLV      8255            0.0000000000
     24878      8266  TIP3      H1             30.1529796015       -9.0914757466       18.3334453365  SOLV      8255            0.0000000000
     24879      8266  TIP3      H2             28.8510196015       -8.8049757466       17.6160253365  SOLV      8255            0.0000000000
     24880      8267  TIP3      OH2            34.3031096015       -4.2322057466       17.7301153365  SOLV      8256            0.0000000000
     24881      8267  TIP3      H1             35.0468996015       -3.6461557466       17.5902753365  SOLV      8256            0.0000000000
     24882      8267  TIP3      H2             33.6089196015       -3.6636257466       18.0633553365  SOLV      8256            0.0000000000
     24883      8268  TIP3      OH2            18.3777896015      -17.8557857466       30.3319353365  SOLV      8257            0.0000000000
     24884      8268  TIP3      H1             17.4850196015      -17.5172457466       30.2643353365  SOLV      8257            0.0000000000
     24885      8268  TIP3      H2             18.2790696015      -18.7111757466       30.7500153365  SOLV      8257            0.0000000000
     24886      8269  TIP3      OH2            30.6655996015      -10.0392557466       19.7558853365  SOLV      8258            0.0000000000
     24887      8269  TIP3      H1             30.3883596015      -10.7673257466       20.3119953365  SOLV      8258            0.0000000000
     24888      8269  TIP3      H2             31.5928996015       -9.9200557466       19.9611453365  SOLV      8258            0.0000000000
     24889      8270  TIP3      OH2            18.0289896015       -6.0513457466       28.7668753365  SOLV      8259            0.0000000000
     24890      8270  TIP3      H1             18.2460196015       -6.9831057466       28.7358453365  SOLV      8259            0.0000000000
     24891      8270  TIP3      H2             18.2753396015       -5.7768457466       29.6501553365  SOLV      8259            0.0000000000
     24892      8271  TIP3      OH2            23.8904496015       -7.5998457466       15.9760953365  SOLV      8260            0.0000000000
     24893      8271  TIP3      H1             24.1294296015       -8.3480357466       15.4289853365  SOLV      8260            0.0000000000
     24894      8271  TIP3      H2             23.6215796015       -7.9876757466       16.8088753365  SOLV      8260            0.0000000000
     24895      8272  TIP3      OH2            22.8275096015       -8.0294657466       18.4323553365  SOLV      8261            0.0000000000
     24896      8272  TIP3      H1             22.9743096015       -8.5494857466       19.2224453365  SOLV      8261            0.0000000000
     24897      8272  TIP3      H2             22.8246796015       -7.1227057466       18.7389453365  SOLV      8261            0.0000000000
     24898      8273  TIP3      OH2            19.2806196015      -10.7771357466       18.9428953365  SOLV      8262            0.0000000000
     24899      8273  TIP3      H1             18.5945496015      -10.4248857466       19.5098653365  SOLV      8262            0.0000000000
     24900      8273  TIP3      H2             19.8034096015      -10.0141757466       18.6963253365  SOLV      8262            0.0000000000
     24901      8274  TIP3      OH2            27.1121296015      -18.1147557466       29.2217953365  SOLV      8263            0.0000000000
     24902      8274  TIP3      H1             27.8109196015      -18.0408857466       29.8717653365  SOLV      8263            0.0000000000
     24903      8274  TIP3      H2             26.7312696015      -18.9792557466       29.3760853365  SOLV      8263            0.0000000000
     24904      8275  TIP3      OH2            27.8966196015      -18.4625857466       20.3190253365  SOLV      8264            0.0000000000
     24905      8275  TIP3      H1             28.1164496015      -17.9910457466       19.5155653365  SOLV      8264            0.0000000000
     24906      8275  TIP3      H2             28.4550196015      -18.0683257466       20.9890853365  SOLV      8264            0.0000000000
     24907      8276  TIP3      OH2            25.5652296015       -6.3321057466       19.1817753365  SOLV      8265            0.0000000000
     24908      8276  TIP3      H1             24.7488396015       -5.8351357466       19.2342053365  SOLV      8265            0.0000000000
     24909      8276  TIP3      H2             26.0948596015       -5.8567557466       18.5416553365  SOLV      8265            0.0000000000
     24910      8277  TIP3      OH2            25.0966096015      -16.7347057466       21.1538653365  SOLV      8266            0.0000000000
     24911      8277  TIP3      H1             25.9088696015      -16.2303857466       21.2000353365  SOLV      8266            0.0000000000
     24912      8277  TIP3      H2             24.8519096015      -16.8797357466       22.0678253365  SOLV      8266            0.0000000000
     24913      8278  TIP3      OH2            25.6322496015      -15.7484357466       30.3385253365  SOLV      8267            0.0000000000
     24914      8278  TIP3      H1             25.7512796015      -15.1748957466       31.0955653365  SOLV      8267            0.0000000000
     24915      8278  TIP3      H2             26.2877096015      -16.4364957466       30.4533053365  SOLV      8267            0.0000000000
     24916      8279  TIP3      OH2            25.9802796015      -19.6534057466       22.0919753365  SOLV      8268            0.0000000000
     24917      8279  TIP3      H1             25.6336296015      -19.0363457466       22.7364053365  SOLV      8268            0.0000000000
     24918      8279  TIP3      H2             26.6389696015      -19.1528357466       21.6105253365  SOLV      8268            0.0000000000
     24919      8280  TIP3      OH2            22.9035396015       -5.2883857466       19.1634653365  SOLV      8269            0.0000000000
     24920      8280  TIP3      H1             23.0644096015       -4.4886357466       18.6627253365  SOLV      8269            0.0000000000
     24921      8280  TIP3      H2             22.7063196015       -4.9817857466       20.0485253365  SOLV      8269            0.0000000000
     24922      8281  TIP3      OH2            21.6379796015      -18.5904657466       18.7792253365  SOLV      8270            0.0000000000
     24923      8281  TIP3      H1             21.5544596015      -17.7021557466       19.1258653365  SOLV      8270            0.0000000000
     24924      8281  TIP3      H2             22.5280096015      -18.8557957466       19.0109053365  SOLV      8270            0.0000000000
     24925      8282  TIP3      OH2            30.4389296015      -14.0913057466       25.2692253365  SOLV      8271            0.0000000000
     24926      8282  TIP3      H1             29.6413696015      -14.5062857466       24.9407253365  SOLV      8271            0.0000000000
     24927      8282  TIP3      H2             30.8840396015      -14.7819357466       25.7602753365  SOLV      8271            0.0000000000
     24928      8283  TIP3      OH2            19.8965096015       -8.1632457466       17.8396753365  SOLV      8272            0.0000000000
     24929      8283  TIP3      H1             20.4886596015       -7.4637657466       18.1159153365  SOLV      8272            0.0000000000
     24930      8283  TIP3      H2             20.3558096015       -8.5962957466       17.1201353365  SOLV      8272            0.0000000000
     24931      8284  TIP3      OH2            18.2124296015      -15.4989457466       16.9556153365  SOLV      8273            0.0000000000
     24932      8284  TIP3      H1             18.1676896015      -14.5596357466       17.1343153365  SOLV      8273            0.0000000000
     24933      8284  TIP3      H2             17.3247496015      -15.7344557466       16.6858253365  SOLV      8273            0.0000000000
     24934      8285  TIP3      OH2            31.5253896015       -4.8350557466       26.8915753365  SOLV      8274            0.0000000000
     24935      8285  TIP3      H1             31.3698196015       -4.1566157466       26.2345053365  SOLV      8274            0.0000000000
     24936      8285  TIP3      H2             32.4580296015       -4.7631257466       27.0946353365  SOLV      8274            0.0000000000
     24937      8286  TIP3      OH2            19.0206296015      -20.7172857466       25.6287153365  SOLV      8275            0.0000000000
     24938      8286  TIP3      H1             18.7916096015      -20.6580357466       24.7012153365  SOLV      8275            0.0000000000
     24939      8286  TIP3      H2             18.5779696015      -21.5087357466       25.9351253365  SOLV      8275            0.0000000000
     24940      8287  TIP3      OH2            17.9509596015       -6.7765757466       21.7892953365  SOLV      8276            0.0000000000
     24941      8287  TIP3      H1             17.1188196015       -6.3043057466       21.8164353365  SOLV      8276            0.0000000000
     24942      8287  TIP3      H2             18.4967896015       -6.2668157466       21.1906053365  SOLV      8276            0.0000000000
     24943      8288  TIP3      OH2            17.2393296015       -4.1642057466       33.1190953365  SOLV      8277            0.0000000000
     24944      8288  TIP3      H1             17.7795496015       -4.3808057466       33.8790153365  SOLV      8277            0.0000000000
     24945      8288  TIP3      H2             16.7581296015       -4.9696057466       32.9293453365  SOLV      8277            0.0000000000
     24946      8289  TIP3      OH2            21.8366696015       -5.2447657466       34.7395153365  SOLV      8278            0.0000000000
     24947      8289  TIP3      H1             22.6043896015       -5.7036857466       35.0804353365  SOLV      8278            0.0000000000
     24948      8289  TIP3      H2             21.8152896015       -5.4707857466       33.8096353365  SOLV      8278            0.0000000000
     24949      8290  TIP3      OH2            25.9286296015       -5.7367057466       16.1146953365  SOLV      8279            0.0000000000
     24950      8290  TIP3      H1             25.2847296015       -6.3678457466       16.4360653365  SOLV      8279            0.0000000000
     24951      8290  TIP3      H2             26.6904596015       -6.2679057466       15.8830453365  SOLV      8279            0.0000000000
     24952      8291  TIP3      OH2            30.5329196015       -5.9197157466       16.3484953365  SOLV      8280            0.0000000000
     24953      8291  TIP3      H1             30.8159596015       -6.7141957466       16.8011853365  SOLV      8280            0.0000000000
     24954      8291  TIP3      H2             31.2727096015       -5.6866157466       15.7876053365  SOLV      8280            0.0000000000
     24955      8292  TIP3      OH2            17.1462796015      -10.3537957466       34.0735253365  SOLV      8281            0.0000000000
     24956      8292  TIP3      H1             17.2903296015      -11.2557257466       33.7871953365  SOLV      8281            0.0000000000
     24957      8292  TIP3      H2             16.3740196015      -10.0675857466       33.5857553365  SOLV      8281            0.0000000000
     24958      8293  TIP3      OH2            21.4876496015      -10.0102257466       16.2059853365  SOLV      8282            0.0000000000
     24959      8293  TIP3      H1             21.5520596015      -10.8042657466       16.7366253365  SOLV      8282            0.0000000000
     24960      8293  TIP3      H2             22.1405696015      -10.1289457466       15.5161853365  SOLV      8282            0.0000000000
     24961      8294  TIP3      OH2            23.8018896015      -10.3839857466       33.5061653365  SOLV      8283            0.0000000000
     24962      8294  TIP3      H1             23.4732696015      -10.1131757466       32.6489053365  SOLV      8283            0.0000000000
     24963      8294  TIP3      H2             23.9537096015      -11.3250057466       33.4186653365  SOLV      8283            0.0000000000
     24964      8295  TIP3      OH2            26.8399896015       -8.9630557466       15.9417853365  SOLV      8284            0.0000000000
     24965      8295  TIP3      H1             26.5713996015       -8.7828457466       16.8426753365  SOLV      8284            0.0000000000
     24966      8295  TIP3      H2             26.6335496015       -9.8884357466       15.8103653365  SOLV      8284            0.0000000000
     24967      8296  TIP3      OH2            29.5364096015      -10.4682557466       30.8893953365  SOLV      8285            0.0000000000
     24968      8296  TIP3      H1             30.2818896015       -9.8798857466       30.7697953365  SOLV      8285            0.0000000000
     24969      8296  TIP3      H2             28.7790896015       -9.8862857466       30.9527053365  SOLV      8285            0.0000000000
     24970      8297  TIP3      OH2            17.9789296015      -13.1534657466       33.4934553365  SOLV      8286            0.0000000000
     24971      8297  TIP3      H1             18.3870496015      -14.0108057466       33.3725153365  SOLV      8286            0.0000000000
     24972      8297  TIP3      H2             17.7186896015      -13.1393357466       34.4144853365  SOLV      8286            0.0000000000
     24973      8298  TIP3      OH2            22.6370296015      -12.0376057466       18.5117853365  SOLV      8287            0.0000000000
     24974      8298  TIP3      H1             22.1772296015      -12.5217757466       19.1976353365  SOLV      8287            0.0000000000
     24975      8298  TIP3      H2             22.8918996015      -12.7060657466       17.8758353365  SOLV      8287            0.0000000000
     24976      8299  TIP3      OH2            21.9259596015      -14.1448957466       30.8677453365  SOLV      8288            0.0000000000
     24977      8299  TIP3      H1             21.3075696015      -13.4702357466       31.1482153365  SOLV      8288            0.0000000000
     24978      8299  TIP3      H2             22.2700796015      -13.8235057466       30.0343653365  SOLV      8288            0.0000000000
     24979      8300  TIP3      OH2            23.7080696015      -13.7944257466       16.7741053365  SOLV      8289            0.0000000000
     24980      8300  TIP3      H1             23.5275696015      -13.9493057466       15.8469353365  SOLV      8289            0.0000000000
     24981      8300  TIP3      H2             24.6581196015      -13.6865557466       16.8188953365  SOLV      8289            0.0000000000
     24982      8301  TIP3      OH2            26.9457796015      -11.6733657466       34.1452253365  SOLV      8290            0.0000000000
     24983      8301  TIP3      H1             27.8988996015      -11.5894557466       34.1178253365  SOLV      8290            0.0000000000
     24984      8301  TIP3      H2             26.7852396015      -12.3851857466       34.7647153365  SOLV      8290            0.0000000000
     24985      8302  TIP3      OH2            33.0978996015      -11.4400057466       16.2199153365  SOLV      8291            0.0000000000
     24986      8302  TIP3      H1             32.8243796015      -11.8644557466       15.4067453365  SOLV      8291            0.0000000000
     24987      8302  TIP3      H2             33.1373096015      -10.5085557466       16.0029553365  SOLV      8291            0.0000000000
     24988      8303  TIP3      OH2            22.2653296015      -16.7898157466       31.9500553365  SOLV      8292            0.0000000000
     24989      8303  TIP3      H1             22.4154196015      -17.5186857466       31.3480253365  SOLV      8292            0.0000000000
     24990      8303  TIP3      H2             22.2675696015      -16.0126457466       31.3912753365  SOLV      8292            0.0000000000
     24991      8304  TIP3      OH2            22.6778996015      -18.4202357466       29.4427953365  SOLV      8293            0.0000000000
     24992      8304  TIP3      H1             23.2136496015      -17.9685657466       28.7907253365  SOLV      8293            0.0000000000
     24993      8304  TIP3      H2             21.8258596015      -18.5282557466       29.0202053365  SOLV      8293            0.0000000000
     24994      8305  TIP3      OH2            24.2597396015      -12.9806157466       29.6823153365  SOLV      8294            0.0000000000
     24995      8305  TIP3      H1             25.0102196015      -13.1368657466       29.1090953365  SOLV      8294            0.0000000000
     24996      8305  TIP3      H2             23.9205696015      -12.1289557466       29.4068653365  SOLV      8294            0.0000000000
     24997      8306  TIP3      OH2            29.9920796015      -12.3769157466       32.7881153365  SOLV      8295            0.0000000000
     24998      8306  TIP3      H1             29.7105796015      -11.6674557466       32.2104953365  SOLV      8295            0.0000000000
     24999      8306  TIP3      H2             30.9345096015      -12.4496157466       32.6372353365  SOLV      8295            0.0000000000
     25000      8307  TIP3      OH2            20.7439596015      -15.5914657466       33.8616153365  SOLV      8296            0.0000000000
     25001      8307  TIP3      H1             19.9768596015      -16.1239857466       33.6513753365  SOLV      8296            0.0000000000
     25002      8307  TIP3      H2             21.4228596015      -15.9014257466       33.2622453365  SOLV      8296            0.0000000000
     25003      8308  TIP3      OH2            23.4834496015      -20.9636657466       29.8741553365  SOLV      8297            0.0000000000
     25004      8308  TIP3      H1             23.3854096015      -20.0173457466       29.7687753365  SOLV      8297            0.0000000000
     25005      8308  TIP3      H2             22.7410696015      -21.3362857466       29.3985053365  SOLV      8297            0.0000000000
     25006      8309  TIP3      OH2            18.9242396015      -17.6710857466       33.5660853365  SOLV      8298            0.0000000000
     25007      8309  TIP3      H1             19.1359796015      -18.3774757466       32.9558353365  SOLV      8298            0.0000000000
     25008      8309  TIP3      H2             18.8129896015      -18.1084857466       34.4102053365  SOLV      8298            0.0000000000
     25009      8310  TIP3      OH2            23.6052396015       -3.1040557466       17.7754653365  SOLV      8299            0.0000000000
     25010      8310  TIP3      H1             24.5383096015       -2.9461857466       17.9193053365  SOLV      8299            0.0000000000
     25011      8310  TIP3      H2             23.3411196015       -2.4287557466       17.1506153365  SOLV      8299            0.0000000000
     25012      8311  TIP3      OH2            17.1737296015       -8.4676757466       17.2582753365  SOLV      8300            0.0000000000
     25013      8311  TIP3      H1             18.0876496015       -8.3887857466       17.5316653365  SOLV      8300            0.0000000000
     25014      8311  TIP3      H2             17.1810396015       -9.1547157466       16.5918353365  SOLV      8300            0.0000000000
     25015      8312  TIP3      OH2            15.8227896015       -3.0748257466       22.3356653365  SOLV      8301            0.0000000000
     25016      8312  TIP3      H1             15.1754996015       -3.5366557466       21.8027853365  SOLV      8301            0.0000000000
     25017      8312  TIP3      H2             16.1772496015       -3.7464957466       22.9182853365  SOLV      8301            0.0000000000
     25018      8313  TIP3      OH2            16.6927096015       -4.9941257466       24.1402853365  SOLV      8302            0.0000000000
     25019      8313  TIP3      H1             16.3583896015       -5.8743957466       24.3123053365  SOLV      8302            0.0000000000
     25020      8313  TIP3      H2             16.9149496015       -4.6486257466       25.0048453365  SOLV      8302            0.0000000000
     25021      8314  TIP3      OH2            33.5561796015      -10.5711957466       20.1949553365  SOLV      8303            0.0000000000
     25022      8314  TIP3      H1             34.4063196015      -10.1501057466       20.3221153365  SOLV      8303            0.0000000000
     25023      8314  TIP3      H2             33.5616896015      -11.3111857466       20.8020953365  SOLV      8303            0.0000000000
     25024      8315  TIP3      OH2            33.9507396015      -12.5174557466       22.0185253365  SOLV      8304            0.0000000000
     25025      8315  TIP3      H1             33.2241996015      -12.9971957466       22.4162853365  SOLV      8304            0.0000000000
     25026      8315  TIP3      H2             34.5320696015      -12.3119857466       22.7506853365  SOLV      8304            0.0000000000
     25027      8316  TIP3      OH2            33.7098596015       -9.7327057466       26.9662853365  SOLV      8305            0.0000000000
     25028      8316  TIP3      H1             34.5432796015      -10.1107057466       26.6856453365  SOLV      8305            0.0000000000
     25029      8316  TIP3      H2             33.8218896015       -8.7895857466       26.8471953365  SOLV      8305            0.0000000000
     25030      8317  TIP3      OH2            32.1960896015       -6.8549557466       29.2731253365  SOLV      8306            0.0000000000
     25031      8317  TIP3      H1             31.5486196015       -6.5298057466       29.8986453365  SOLV      8306            0.0000000000
     25032      8317  TIP3      H2             31.6784896015       -7.2951857466       28.5989553365  SOLV      8306            0.0000000000
     25033      8318  TIP3      OH2            34.2190496015      -12.6166057466       18.4096553365  SOLV      8307            0.0000000000
     25034      8318  TIP3      H1             33.6971596015      -12.2601957466       17.6907453365  SOLV      8307            0.0000000000
     25035      8318  TIP3      H2             34.1859696015      -11.9418257466       19.0877453365  SOLV      8307            0.0000000000
     25036      8319  TIP3      OH2            32.5679496015      -15.3770457466       16.9603653365  SOLV      8308            0.0000000000
     25037      8319  TIP3      H1             32.6643896015      -14.7103457466       16.2803353365  SOLV      8308            0.0000000000
     25038      8319  TIP3      H2             32.4279096015      -16.1924157466       16.4789153365  SOLV      8308            0.0000000000
     25039      8320  TIP3      OH2            31.7374196015      -13.9968057466       22.5813953365  SOLV      8309            0.0000000000
     25040      8320  TIP3      H1             31.5872996015      -14.9419457466       22.5611753365  SOLV      8309            0.0000000000
     25041      8320  TIP3      H2             31.3838696015      -13.7156657466       23.4253053365  SOLV      8309            0.0000000000
     25042      8321  TIP3      OH2            16.7726596015      -11.9185857466       26.5917753365  SOLV      8310            0.0000000000
     25043      8321  TIP3      H1             16.9569496015      -12.0004157466       25.6560653365  SOLV      8310            0.0000000000
     25044      8321  TIP3      H2             17.6219496015      -12.0428857466       27.0154153365  SOLV      8310            0.0000000000
     25045      8322  TIP3      OH2            31.8153296015      -17.9690657466       16.0779153365  SOLV      8311            0.0000000000
     25046      8322  TIP3      H1             32.4259096015      -18.3403857466       16.7147353365  SOLV      8311            0.0000000000
     25047      8322  TIP3      H2             30.9784796015      -18.3903757466       16.2739153365  SOLV      8311            0.0000000000
     25048      8323  TIP3      OH2            31.4478996015      -16.4142257466       21.0439053365  SOLV      8312            0.0000000000
     25049      8323  TIP3      H1             31.7276096015      -17.3211857466       21.1680753365  SOLV      8312            0.0000000000
     25050      8323  TIP3      H2             32.2070696015      -15.9800757466       20.6548253365  SOLV      8312            0.0000000000
     25051      8324  TIP3      OH2            32.0597296015      -15.8324857466       26.4797953365  SOLV      8313            0.0000000000
     25052      8324  TIP3      H1             32.9925296015      -15.6204957466       26.4453953365  SOLV      8313            0.0000000000
     25053      8324  TIP3      H2             31.8244796015      -15.7312757466       27.4020953365  SOLV      8313            0.0000000000
     25054      8325  TIP3      OH2            32.0889196015      -15.0959557466       29.2557353365  SOLV      8314            0.0000000000
     25055      8325  TIP3      H1             31.2460496015      -14.8279157466       29.6217153365  SOLV      8314            0.0000000000
     25056      8325  TIP3      H2             32.5313496015      -14.2737657466       29.0448453365  SOLV      8314            0.0000000000
     25057      8326  TIP3      OH2            16.3701396015      -16.6480857466       32.7326553365  SOLV      8315            0.0000000000
     25058      8326  TIP3      H1             17.2896296015      -16.7702557466       32.9689653365  SOLV      8315            0.0000000000
     25059      8326  TIP3      H2             15.9205896015      -17.3981157466       33.1220053365  SOLV      8315            0.0000000000
     25060      8327  TIP3      OH2            32.0613796015      -19.1512957466       21.0921053365  SOLV      8316            0.0000000000
     25061      8327  TIP3      H1             32.2438796015      -19.6001457466       21.9176053365  SOLV      8316            0.0000000000
     25062      8327  TIP3      H2             31.4616696015      -19.7358557466       20.6285653365  SOLV      8316            0.0000000000
     25063      8328  TIP3      OH2            17.5913896015      -18.3359257466       25.6239453365  SOLV      8317            0.0000000000
     25064      8328  TIP3      H1             18.0365496015      -19.1276757466       25.9259153365  SOLV      8317            0.0000000000
     25065      8328  TIP3      H2             18.0576896015      -17.6194057466       26.0545053365  SOLV      8317            0.0000000000
     25066      8329  TIP3      OH2            15.8954196015      -15.3366257466       26.6929653365  SOLV      8318            0.0000000000
     25067      8329  TIP3      H1             16.3873996015      -15.5575757466       25.9021653365  SOLV      8318            0.0000000000
     25068      8329  TIP3      H2             16.2575096015      -14.4962857466       26.9739153365  SOLV      8318            0.0000000000
     25069      8330  TIP3      OH2            16.2090696015      -19.0787157466       20.7472053365  SOLV      8319            0.0000000000
     25070      8330  TIP3      H1             15.2839096015      -18.8700557466       20.6177553365  SOLV      8319            0.0000000000
     25071      8330  TIP3      H2             16.6630596015      -18.5946357466       20.0574353365  SOLV      8319            0.0000000000
     25072      8331  TIP3      OH2            30.9797896015       -4.0945457466       22.6929453365  SOLV      8320            0.0000000000
     25073      8331  TIP3      H1             31.6320796015       -4.4423357466       22.0848553365  SOLV      8320            0.0000000000
     25074      8331  TIP3      H2             31.4901696015       -3.6062257466       23.3389153365  SOLV      8320            0.0000000000
     25075      8332  TIP3      OH2            16.1726096015      -20.3408157466       29.0914553365  SOLV      8321            0.0000000000
     25076      8332  TIP3      H1             15.5076596015      -20.5867857466       29.7345453365  SOLV      8321            0.0000000000
     25077      8332  TIP3      H2             15.7297396015      -19.7187757466       28.5142553365  SOLV      8321            0.0000000000
     25078      8333  TIP3      OH2            18.3645396015       -7.1654057466       33.2360353365  SOLV      8322            0.0000000000
     25079      8333  TIP3      H1             17.5437896015       -6.9907557466       32.7755053365  SOLV      8322            0.0000000000
     25080      8333  TIP3      H2             18.1123196015       -7.2389357466       34.1564753365  SOLV      8322            0.0000000000
     25081      8334  TIP3      OH2            21.3188296015       -6.1912857466       29.4944353365  SOLV      8323            0.0000000000
     25082      8334  TIP3      H1             20.8939396015       -5.3814357466       29.2118953365  SOLV      8323            0.0000000000
     25083      8334  TIP3      H2             22.2231096015       -6.1058757466       29.1924153365  SOLV      8323            0.0000000000
     25084      8335  TIP3      OH2            18.7204996015       -2.9348957466       29.5419653365  SOLV      8324            0.0000000000
     25085      8335  TIP3      H1             18.0001396015       -2.4947957466       29.0907353365  SOLV      8324            0.0000000000
     25086      8335  TIP3      H2             18.3548996015       -3.1854257466       30.3903653365  SOLV      8324            0.0000000000
     25087      8336  TIP3      OH2            21.1877596015       -3.3345057466       28.5716853365  SOLV      8325            0.0000000000
     25088      8336  TIP3      H1             20.3229796015       -3.2626557466       28.9756953365  SOLV      8325            0.0000000000
     25089      8336  TIP3      H2             21.1326596015       -2.7877757466       27.7879353365  SOLV      8325            0.0000000000
     25090      8337  TIP3      OH2            25.8983196015       -3.4466157466       27.7472853365  SOLV      8326            0.0000000000
     25091      8337  TIP3      H1             25.4417196015       -2.9176457466       27.0931253365  SOLV      8326            0.0000000000
     25092      8337  TIP3      H2             26.0611196015       -2.8434757466       28.4725153365  SOLV      8326            0.0000000000
     25093      8338  TIP3      OH2            28.2259496015       -4.5686557466       28.6923153365  SOLV      8327            0.0000000000
     25094      8338  TIP3      H1             27.3213196015       -4.4036357466       28.4265253365  SOLV      8327            0.0000000000
     25095      8338  TIP3      H2             28.6548096015       -3.7154357466       28.6266553365  SOLV      8327            0.0000000000
     25096      8339  TIP3      OH2            30.8301396015       -2.9987457466       28.9870953365  SOLV      8328            0.0000000000
     25097      8339  TIP3      H1             30.6483396015       -2.0828557466       28.7765853365  SOLV      8328            0.0000000000
     25098      8339  TIP3      H2             31.0069196015       -3.4090357466       28.1405553365  SOLV      8328            0.0000000000
     25099      8340  TIP3      OH2            18.1353096015       -4.3116457466       26.4521453365  SOLV      8329            0.0000000000
     25100      8340  TIP3      H1             18.1169096015       -4.7371357466       27.3093753365  SOLV      8329            0.0000000000
     25101      8340  TIP3      H2             18.9400996015       -4.6301457466       26.0433653365  SOLV      8329            0.0000000000
     25102      8341  TIP3      OH2            20.2766196015       -5.6017757466       25.1071353365  SOLV      8330            0.0000000000
     25103      8341  TIP3      H1             20.0576896015       -6.5180357466       25.2767353365  SOLV      8330            0.0000000000
     25104      8341  TIP3      H2             21.1008396015       -5.4617357466       25.5732753365  SOLV      8330            0.0000000000
     25105      8342  TIP3      OH2            22.8138696015       -5.1318457466       25.9559353365  SOLV      8331            0.0000000000
     25106      8342  TIP3      H1             23.0264396015       -6.0199457466       25.6690253365  SOLV      8331            0.0000000000
     25107      8342  TIP3      H2             22.8783796015       -5.1660757466       26.9103353365  SOLV      8331            0.0000000000
     25108      8343  TIP3      OH2            26.3222396015      -19.4677857466       25.1002653365  SOLV      8332            0.0000000000
     25109      8343  TIP3      H1             25.6479196015      -20.0972257466       25.3558453365  SOLV      8332            0.0000000000
     25110      8343  TIP3      H2             26.8861596015      -19.9518957466       24.4970553365  SOLV      8332            0.0000000000
     25111      8344  TIP3      OH2            31.4649596015      -21.3603857466       25.2129753365  SOLV      8333            0.0000000000
     25112      8344  TIP3      H1             32.0687196015      -20.8128457466       24.7110753365  SOLV      8333            0.0000000000
     25113      8344  TIP3      H2             30.5951596015      -21.0413457466       24.9723853365  SOLV      8333            0.0000000000
     25114      8345  TIP3      OH2            18.6489896015      -20.8337557466       22.9222553365  SOLV      8334            0.0000000000
     25115      8345  TIP3      H1             17.8719696015      -21.0682657466       22.4148453365  SOLV      8334            0.0000000000
     25116      8345  TIP3      H2             19.1793496015      -21.6305457466       22.9310553365  SOLV      8334            0.0000000000
     25117      8346  TIP3      OH2            17.4853296015      -21.0359457466       18.7258653365  SOLV      8335            0.0000000000
     25118      8346  TIP3      H1             17.9243996015      -20.4248957466       18.1342153365  SOLV      8335            0.0000000000
     25119      8346  TIP3      H2             16.8515696015      -20.4975357466       19.1998653365  SOLV      8335            0.0000000000
     25120      8347  TIP3      OH2            23.2282496015      -20.9070457466       22.7355653365  SOLV      8336            0.0000000000
     25121      8347  TIP3      H1             24.1025896015      -20.5186157466       22.7059953365  SOLV      8336            0.0000000000
     25122      8347  TIP3      H2             23.0923296015      -21.1222657466       23.6582853365  SOLV      8336            0.0000000000
     25123      8348  TIP3      OH2            28.7850896015      -20.8770657466       24.3847353365  SOLV      8337            0.0000000000
     25124      8348  TIP3      H1             28.8612496015      -20.7819057466       23.4353353365  SOLV      8337            0.0000000000
     25125      8348  TIP3      H2             28.5100096015      -21.7847757466       24.5136453365  SOLV      8337            0.0000000000
     25126      8349  TIP3      OH2            30.1383496015      -20.8512857466       20.0772353365  SOLV      8338            0.0000000000
     25127      8349  TIP3      H1             29.4354596015      -20.2363657466       19.8673753365  SOLV      8338            0.0000000000
     25128      8349  TIP3      H2             29.6934896015      -21.6886157466       20.2083253365  SOLV      8338            0.0000000000
     25129      8350  TIP3      OH2            17.3862796015       -5.0877257466       19.6233753365  SOLV      8339            0.0000000000
     25130      8350  TIP3      H1             16.7012696015       -5.1258357466       18.9558853365  SOLV      8339            0.0000000000
     25131      8350  TIP3      H2             17.3899996015       -4.1749657466       19.9115853365  SOLV      8339            0.0000000000
     25132      8351  TIP3      OH2            19.3462396015      -19.1197957466       17.1682753365  SOLV      8340            0.0000000000
     25133      8351  TIP3      H1             19.8375796015      -19.7495557466       16.6408253365  SOLV      8340            0.0000000000
     25134      8351  TIP3      H2             19.9698696015      -18.8238557466       17.8313953365  SOLV      8340            0.0000000000
     25135      8352  TIP3      OH2            24.3722496015      -18.8266457466       19.6253253365  SOLV      8341            0.0000000000
     25136      8352  TIP3      H1             24.5503796015      -19.4733257466       20.3081853365  SOLV      8341            0.0000000000
     25137      8352  TIP3      H2             24.3188696015      -17.9928757466       20.0924353365  SOLV      8341            0.0000000000
     25138      8353  TIP3      OH2            26.2506296015       -3.8782357466       18.0209953365  SOLV      8342            0.0000000000
     25139      8353  TIP3      H1             27.1166496015       -3.5114957466       17.8428153365  SOLV      8342            0.0000000000
     25140      8353  TIP3      H2             26.0039096015       -4.3174357466       17.2070753365  SOLV      8342            0.0000000000
     25141      8354  TIP3      OH2            32.9595896015       -4.3152057466       20.7001053365  SOLV      8343            0.0000000000
     25142      8354  TIP3      H1             32.7652996015       -5.0629957466       20.1350653365  SOLV      8343            0.0000000000
     25143      8354  TIP3      H2             32.9205996015       -3.5571957466       20.1168953365  SOLV      8343            0.0000000000
     25144      8355  TIP3      OH2            19.2043996015       -4.1676457466       16.6485853365  SOLV      8344            0.0000000000
     25145      8355  TIP3      H1             18.9368596015       -3.8813557466       17.5218953365  SOLV      8344            0.0000000000
     25146      8355  TIP3      H2             19.9756596015       -4.7137257466       16.8008353365  SOLV      8344            0.0000000000
     25147      8356  TIP3      OH2            36.1091996015       -9.2659357466       20.2364153365  SOLV      8345            0.0000000000
     25148      8356  TIP3      H1             35.8372896015       -9.0368357466       19.3477053365  SOLV      8345            0.0000000000
     25149      8356  TIP3      H2             36.1547696015       -8.4280557466       20.6969453365  SOLV      8345            0.0000000000
     25150      8357  TIP3      OH2            35.1891896015       -7.3808457466       26.4554053365  SOLV      8346            0.0000000000
     25151      8357  TIP3      H1             36.1352496015       -7.5251457466       26.4363553365  SOLV      8346            0.0000000000
     25152      8357  TIP3      H2             35.0768196015       -6.5965657466       26.9925253365  SOLV      8346            0.0000000000
     25153      8358  TIP3      OH2            36.8069596015       -6.7765757466       21.7892953365  SOLV      8347            0.0000000000
     25154      8358  TIP3      H1             35.9748196015       -6.3043057466       21.8164353365  SOLV      8347            0.0000000000
     25155      8358  TIP3      H2             37.3527896015       -6.2668157466       21.1906053365  SOLV      8347            0.0000000000
     25156      8359  TIP3      OH2            34.6787896015       -3.0748257466       22.3356653365  SOLV      8348            0.0000000000
     25157      8359  TIP3      H1             34.0314996015       -3.5366557466       21.8027853365  SOLV      8348            0.0000000000
     25158      8359  TIP3      H2             35.0332496015       -3.7464957466       22.9182853365  SOLV      8348            0.0000000000
     25159      8360  TIP3      OH2            35.5487096015       -4.9941257466       24.1402853365  SOLV      8349            0.0000000000
     25160      8360  TIP3      H1             35.2143896015       -5.8743957466       24.3123053365  SOLV      8349            0.0000000000
     25161      8360  TIP3      H2             35.7709496015       -4.6486257466       25.0048453365  SOLV      8349            0.0000000000
     25162      8361  TIP3      OH2            36.2422796015       -5.0877257466       19.6233753365  SOLV      8350            0.0000000000
     25163      8361  TIP3      H1             35.5572696015       -5.1258357466       18.9558853365  SOLV      8350            0.0000000000
     25164      8361  TIP3      H2             36.2459996015       -4.1749657466       19.9115853365  SOLV      8350            0.0000000000
     25165      8362  TIP3      OH2           -28.8407503985        7.1784742534       22.8810053365  SOLV      8351            0.0000000000
     25166      8362  TIP3      H1            -28.7516403985        8.1222942534       22.7487153365  SOLV      8351            0.0000000000
     25167      8362  TIP3      H2            -29.4789903985        6.9031142534       22.2229453365  SOLV      8351            0.0000000000
     25168      8363  TIP3      OH2           -29.9076203985        6.4335442534       26.2998253365  SOLV      8352            0.0000000000
     25169      8363  TIP3      H1            -29.9458703985        5.7871742534       27.0047853365  SOLV      8352            0.0000000000
     25170      8363  TIP3      H2            -30.2299703985        5.9669842534       25.5286953365  SOLV      8352            0.0000000000
     25171      8364  TIP3      OH2           -26.2016003985        9.3725842534       24.6013353365  SOLV      8353            0.0000000000
     25172      8364  TIP3      H1            -26.6423303985        8.6521842534       25.0518953365  SOLV      8353            0.0000000000
     25173      8364  TIP3      H2            -26.2146303985       10.0933042534       25.2311053365  SOLV      8353            0.0000000000
     25174      8365  TIP3      OH2           -29.0900503985       14.4767542534       24.8133753365  SOLV      8354            0.0000000000
     25175      8365  TIP3      H1            -28.4704103985       13.8002242534       24.5402953365  SOLV      8354            0.0000000000
     25176      8365  TIP3      H2            -29.2983103985       14.2588342534       25.7218653365  SOLV      8354            0.0000000000
     25177      8366  TIP3      OH2           -31.5181803985        8.8656842534       26.7059253365  SOLV      8355            0.0000000000
     25178      8366  TIP3      H1            -31.2143903985        8.1798242534       26.1113353365  SOLV      8355            0.0000000000
     25179      8366  TIP3      H2            -30.7967803985        8.9845542534       27.3237253365  SOLV      8355            0.0000000000
     25180      8367  TIP3      OH2           -22.8552003985        0.4672142534       27.5665453365  SOLV      8356            0.0000000000
     25181      8367  TIP3      H1            -22.8059803985        1.0773342534       28.3024553365  SOLV      8356            0.0000000000
     25182      8367  TIP3      H2            -22.4296903985        0.9283042534       26.8436553365  SOLV      8356            0.0000000000
     25183      8368  TIP3      OH2           -28.3774803985        3.2599242534       27.0334053365  SOLV      8357            0.0000000000
     25184      8368  TIP3      H1            -28.2348903985        2.3136242534       27.0535653365  SOLV      8357            0.0000000000
     25185      8368  TIP3      H2            -28.4835803985        3.4669042534       26.1048953365  SOLV      8357            0.0000000000
     25186      8369  TIP3      OH2           -35.2226503985        1.3615642534       24.3058853365  SOLV      8358            0.0000000000
     25187      8369  TIP3      H1            -35.1795403985        2.2214142534       23.8875153365  SOLV      8358            0.0000000000
     25188      8369  TIP3      H2            -35.6802403985        0.8090342534       23.6722053365  SOLV      8358            0.0000000000
     25189      8370  TIP3      OH2           -27.5003803985        1.4921242534       22.7067153365  SOLV      8359            0.0000000000
     25190      8370  TIP3      H1            -26.8539503985        1.1634442534       23.3314753365  SOLV      8359            0.0000000000
     25191      8370  TIP3      H2            -26.9904403985        2.0100242534       22.0838553365  SOLV      8359            0.0000000000
     25192      8371  TIP3      OH2           -33.4460503985        5.3082742534       24.2831753365  SOLV      8360            0.0000000000
     25193      8371  TIP3      H1            -32.8299503985        4.7818142534       24.7925753365  SOLV      8360            0.0000000000
     25194      8371  TIP3      H2            -34.0321703985        4.6681442534       23.8795353365  SOLV      8360            0.0000000000
     25195      8372  TIP3      OH2           -22.4637403985        1.9451342534       29.8025253365  SOLV      8361            0.0000000000
     25196      8372  TIP3      H1            -23.1522803985        2.6032042534       29.7071853365  SOLV      8361            0.0000000000
     25197      8372  TIP3      H2            -22.4482803985        1.7479242534       30.7390653365  SOLV      8361            0.0000000000
     25198      8373  TIP3      OH2           -29.0434803985        9.7795142534       21.9238753365  SOLV      8362            0.0000000000
     25199      8373  TIP3      H1            -29.3389703985        9.4567442534       21.0725653365  SOLV      8362            0.0000000000
     25200      8373  TIP3      H2            -29.3677003985       10.6791842534       21.9651353365  SOLV      8362            0.0000000000
     25201      8374  TIP3      OH2           -33.8433203985        7.9549742534       28.6673353365  SOLV      8363            0.0000000000
     25202      8374  TIP3      H1            -34.5834103985        8.5531242534       28.7708553365  SOLV      8363            0.0000000000
     25203      8374  TIP3      H2            -33.1293703985        8.5089342534       28.3516953365  SOLV      8363            0.0000000000
     25204      8375  TIP3      OH2           -25.7365403985        0.7830542534       24.6873053365  SOLV      8364            0.0000000000
     25205      8375  TIP3      H1            -25.9517403985        0.0173942534       25.2199053365  SOLV      8364            0.0000000000
     25206      8375  TIP3      H2            -25.0808003985        1.2555142534       25.2001553365  SOLV      8364            0.0000000000
     25207      8376  TIP3      OH2           -25.6898303985       11.2116542534       26.9492653365  SOLV      8365            0.0000000000
     25208      8376  TIP3      H1            -26.6314603985       11.2700442534       27.1109553365  SOLV      8365            0.0000000000
     25209      8376  TIP3      H2            -25.4132203985       12.1177042534       26.8122353365  SOLV      8365            0.0000000000
     25210      8377  TIP3      OH2           -25.3891303985       -0.5018157466       28.3666553365  SOLV      8366            0.0000000000
     25211      8377  TIP3      H1            -26.1252103985        0.1088942534       28.3287853365  SOLV      8366            0.0000000000
     25212      8377  TIP3      H2            -24.7057303985       -0.0869157466       27.8402953365  SOLV      8366            0.0000000000
     25213      8378  TIP3      OH2           -27.4377103985       12.9930042534       23.5744253365  SOLV      8367            0.0000000000
     25214      8378  TIP3      H1            -27.0124803985       12.2857942534       23.0893853365  SOLV      8367            0.0000000000
     25215      8378  TIP3      H2            -27.1207103985       13.7942742534       23.1576453365  SOLV      8367            0.0000000000
     25216      8379  TIP3      OH2           -26.2780603985       10.8938542534       22.0830853365  SOLV      8368            0.0000000000
     25217      8379  TIP3      H1            -26.5355803985       10.2038642534       21.4716753365  SOLV      8368            0.0000000000
     25218      8379  TIP3      H2            -26.2069803985       10.4509742534       22.9286753365  SOLV      8368            0.0000000000
     25219      8380  TIP3      OH2           -24.5920403985        9.4605242534       30.5604353365  SOLV      8369            0.0000000000
     25220      8380  TIP3      H1            -24.4524103985        8.8687742534       29.8211353365  SOLV      8369            0.0000000000
     25221      8380  TIP3      H2            -24.4247603985       10.3331142534       30.2043153365  SOLV      8369            0.0000000000
     25222      8381  TIP3      OH2           -30.1195003985        6.4224742534       20.3330353365  SOLV      8370            0.0000000000
     25223      8381  TIP3      H1            -30.8309503985        6.9574442534       19.9810853365  SOLV      8370            0.0000000000
     25224      8381  TIP3      H2            -29.4285403985        6.4776842534       19.6729253365  SOLV      8370            0.0000000000
     25225      8382  TIP3      OH2           -22.7501103985        5.8003242534       28.6264753365  SOLV      8371            0.0000000000
     25226      8382  TIP3      H1            -23.4027003985        6.4948842534       28.7155653365  SOLV      8371            0.0000000000
     25227      8382  TIP3      H2            -22.2850803985        6.0104142534       27.8166353365  SOLV      8371            0.0000000000
     25228      8383  TIP3      OH2           -26.7137303985        6.6318042534       21.2846253365  SOLV      8372            0.0000000000
     25229      8383  TIP3      H1            -27.4456303985        6.8601742534       21.8576853365  SOLV      8372            0.0000000000
     25230      8383  TIP3      H2            -26.2665103985        5.9180742534       21.7393753365  SOLV      8372            0.0000000000
     25231      8384  TIP3      OH2           -26.8163803985        4.8060642534       30.3523253365  SOLV      8373            0.0000000000
     25232      8384  TIP3      H1            -26.7364703985        5.5695042534       30.9241753365  SOLV      8373            0.0000000000
     25233      8384  TIP3      H2            -27.4176103985        5.0853042534       29.6618353365  SOLV      8373            0.0000000000
     25234      8385  TIP3      OH2           -35.0683603985        7.2624242534       23.1671253365  SOLV      8374            0.0000000000
     25235      8385  TIP3      H1            -35.3988403985        6.8917642534       22.3488253365  SOLV      8374            0.0000000000
     25236      8385  TIP3      H2            -34.4799503985        6.5918242534       23.5139553365  SOLV      8374            0.0000000000
     25237      8386  TIP3      OH2           -33.7016103985       10.6904842534       25.8483453365  SOLV      8375            0.0000000000
     25238      8386  TIP3      H1            -33.7964803985       10.1117942534       25.0918053365  SOLV      8375            0.0000000000
     25239      8386  TIP3      H2            -32.9722503985       10.3190542534       26.3446253365  SOLV      8375            0.0000000000
     25240      8387  TIP3      OH2           -34.7018103985        6.0309842534       26.8006253365  SOLV      8376            0.0000000000
     25241      8387  TIP3      H1            -34.1365603985        6.1524042534       26.0377453365  SOLV      8376            0.0000000000
     25242      8387  TIP3      H2            -34.3829203985        6.6684842534       27.4394753365  SOLV      8376            0.0000000000
     25243      8388  TIP3      OH2           -28.3925903985       11.5341742534       27.5346753365  SOLV      8377            0.0000000000
     25244      8388  TIP3      H1            -28.6329303985       12.1964842534       28.1825953365  SOLV      8377            0.0000000000
     25245      8388  TIP3      H2            -28.5907703985       10.6996942534       27.9596353365  SOLV      8377            0.0000000000
     25246      8389  TIP3      OH2           -27.8427803985        5.7940942534       18.9697453365  SOLV      8378            0.0000000000
     25247      8389  TIP3      H1            -27.2632303985        5.9441242534       19.7166353365  SOLV      8378            0.0000000000
     25248      8389  TIP3      H2            -27.4287803985        6.2648342534       18.2463853365  SOLV      8378            0.0000000000
     25249      8390  TIP3      OH2           -30.1162903985       12.5309442534       22.4050553365  SOLV      8379            0.0000000000
     25250      8390  TIP3      H1            -29.6425303985       12.8265742534       23.1824753365  SOLV      8379            0.0000000000
     25251      8390  TIP3      H2            -30.6793603985       13.2691042534       22.1720153365  SOLV      8379            0.0000000000
     25252      8391  TIP3      OH2           -24.1439403985       -2.4558657466       18.7827153365  SOLV      8380            0.0000000000
     25253      8391  TIP3      H1            -25.0438703985       -2.3169657466       19.0777753365  SOLV      8380            0.0000000000
     25254      8391  TIP3      H2            -23.8921003985       -1.6244057466       18.3808853365  SOLV      8380            0.0000000000
     25255      8392  TIP3      OH2           -36.0780903985        6.3318542534       20.7564053365  SOLV      8381            0.0000000000
     25256      8392  TIP3      H1            -36.3699603985        7.1000242534       20.2655353365  SOLV      8381            0.0000000000
     25257      8392  TIP3      H2            -36.7525703985        5.6724742534       20.5935453365  SOLV      8381            0.0000000000
     25258      8393  TIP3      OH2           -22.9548003985       11.9103742534       17.1591053365  SOLV      8382            0.0000000000
     25259      8393  TIP3      H1            -22.8814503985       12.8493942534       17.3296353365  SOLV      8382            0.0000000000
     25260      8393  TIP3      H2            -22.0492903985       11.6052342534       17.1028353365  SOLV      8382            0.0000000000
     25261      8394  TIP3      OH2           -22.0369603985       12.1411242534       32.1377753365  SOLV      8383            0.0000000000
     25262      8394  TIP3      H1            -22.0862803985       11.1859342534       32.1005353365  SOLV      8383            0.0000000000
     25263      8394  TIP3      H2            -22.8637303985       12.4086542534       32.5391553365  SOLV      8383            0.0000000000
     25264      8395  TIP3      OH2           -31.0585603985       11.7150442534       31.0139153365  SOLV      8384            0.0000000000
     25265      8395  TIP3      H1            -30.9711003985       12.5415042534       31.4888253365  SOLV      8384            0.0000000000
     25266      8395  TIP3      H2            -31.9220503985       11.3854242534       31.2628453365  SOLV      8384            0.0000000000
     25267      8396  TIP3      OH2           -30.6439803985       15.4874142534       20.8199753365  SOLV      8385            0.0000000000
     25268      8396  TIP3      H1            -30.7193803985       15.3661342534       19.8734953365  SOLV      8385            0.0000000000
     25269      8396  TIP3      H2            -30.6111103985       16.4366842534       20.9384353365  SOLV      8385            0.0000000000
     25270      8397  TIP3      OH2           -27.5423803985       14.6414342534       17.8222153365  SOLV      8386            0.0000000000
     25271      8397  TIP3      H1            -27.1675403985       13.8970442534       17.3514753365  SOLV      8386            0.0000000000
     25272      8397  TIP3      H2            -27.5380103985       14.3714942534       18.7405453365  SOLV      8386            0.0000000000
     25273      8398  TIP3      OH2           -27.8735703985       14.5671442534       20.5714353365  SOLV      8387            0.0000000000
     25274      8398  TIP3      H1            -28.8085903985       14.6673342534       20.7501353365  SOLV      8387            0.0000000000
     25275      8398  TIP3      H2            -27.5933803985       13.8577442534       21.1497553365  SOLV      8387            0.0000000000
     25276      8399  TIP3      OH2           -24.8849803985        3.6343742534       32.6179953365  SOLV      8388            0.0000000000
     25277      8399  TIP3      H1            -25.2923003985        4.1149342534       31.8973253365  SOLV      8388            0.0000000000
     25278      8399  TIP3      H2            -24.8444103985        2.7289742534       32.3100753365  SOLV      8388            0.0000000000
     25279      8400  TIP3      OH2           -26.3654703985        6.8269242534       16.5995353365  SOLV      8389            0.0000000000
     25280      8400  TIP3      H1            -26.3233903985        6.6043142534       15.6695353365  SOLV      8389            0.0000000000
     25281      8400  TIP3      H2            -25.5162603985        7.2256342534       16.7895253365  SOLV      8389            0.0000000000
     25282      8401  TIP3      OH2           -30.7927203985        0.7027442534       17.2698653365  SOLV      8390            0.0000000000
     25283      8401  TIP3      H1            -31.0462403985        0.7219042534       18.1926753365  SOLV      8390            0.0000000000
     25284      8401  TIP3      H2            -31.0495103985       -0.1687157466       16.9684853365  SOLV      8390            0.0000000000
     25285      8402  TIP3      OH2           -35.0293103985        3.6748242534       22.6171053365  SOLV      8391            0.0000000000
     25286      8402  TIP3      H1            -35.9220203985        3.3344342534       22.5584853365  SOLV      8391            0.0000000000
     25287      8402  TIP3      H2            -34.5786503985        3.2979142534       21.8614253365  SOLV      8391            0.0000000000
     25288      8403  TIP3      OH2           -29.4937603985        4.0908542534       21.4341853365  SOLV      8392            0.0000000000
     25289      8403  TIP3      H1            -29.9027303985        4.9057142534       21.1426653365  SOLV      8392            0.0000000000
     25290      8403  TIP3      H2            -28.7731403985        3.9508642534       20.8198953365  SOLV      8392            0.0000000000
     25291      8404  TIP3      OH2           -28.4889903985        3.5368942534       24.2481553365  SOLV      8393            0.0000000000
     25292      8404  TIP3      H1            -28.6845403985        4.1425742534       23.5332153365  SOLV      8393            0.0000000000
     25293      8404  TIP3      H2            -28.3077303985        2.7034142534       23.8137853365  SOLV      8393            0.0000000000
     25294      8405  TIP3      OH2           -33.9104303985        1.1483942534       16.3709053365  SOLV      8394            0.0000000000
     25295      8405  TIP3      H1            -34.3413603985        0.7034042534       17.1006453365  SOLV      8394            0.0000000000
     25296      8405  TIP3      H2            -34.6285603985        1.5200242534       15.8586553365  SOLV      8394            0.0000000000
     25297      8406  TIP3      OH2           -29.2250703985        5.1750242534       28.9193953365  SOLV      8395            0.0000000000
     25298      8406  TIP3      H1            -28.9015903985        4.5439942534       28.2764453365  SOLV      8395            0.0000000000
     25299      8406  TIP3      H2            -29.6651403985        4.6402442534       29.5801353365  SOLV      8395            0.0000000000
     25300      8407  TIP3      OH2           -32.4477803985        1.1025742534       23.7035153365  SOLV      8396            0.0000000000
     25301      8407  TIP3      H1            -33.3586703985        1.1592542534       23.9921153365  SOLV      8396            0.0000000000
     25302      8407  TIP3      H2            -31.9424903985        1.0421242534       24.5142353365  SOLV      8396            0.0000000000
     25303      8408  TIP3      OH2           -37.6194403985        2.7312042534       22.5302753365  SOLV      8397            0.0000000000
     25304      8408  TIP3      H1            -38.5086403985        2.8307542534       22.1902353365  SOLV      8397            0.0000000000
     25305      8408  TIP3      H2            -37.3229503985        1.8895042534       22.1840653365  SOLV      8397            0.0000000000
     25306      8409  TIP3      OH2           -33.9662603985        2.7314642534       20.1867353365  SOLV      8398            0.0000000000
     25307      8409  TIP3      H1            -33.0347103985        2.8604642534       20.3650453365  SOLV      8398            0.0000000000
     25308      8409  TIP3      H2            -34.1812303985        3.4008942534       19.5372053365  SOLV      8398            0.0000000000
     25309      8410  TIP3      OH2           -28.0425903985        0.3372042534       26.9676953365  SOLV      8399            0.0000000000
     25310      8410  TIP3      H1            -28.7194303985        0.4685142534       27.6316653365  SOLV      8399            0.0000000000
     25311      8410  TIP3      H2            -28.5281003985        0.1821542534       26.1574653365  SOLV      8399            0.0000000000
     25312      8411  TIP3      OH2           -35.2922403985        3.9256842534       17.7533453365  SOLV      8400            0.0000000000
     25313      8411  TIP3      H1            -35.8347303985        3.5460642534       17.0621053365  SOLV      8400            0.0000000000
     25314      8411  TIP3      H2            -34.4587503985        4.1201542534       17.3247553365  SOLV      8400            0.0000000000
     25315      8412  TIP3      OH2           -31.1278103985        3.8898742534       25.5904753365  SOLV      8401            0.0000000000
     25316      8412  TIP3      H1            -30.5634703985        3.3435342534       25.0434353365  SOLV      8401            0.0000000000
     25317      8412  TIP3      H2            -31.2754703985        3.3680642534       26.3792353365  SOLV      8401            0.0000000000
     25318      8413  TIP3      OH2           -36.1258403985        0.0264842534       22.0089553365  SOLV      8402            0.0000000000
     25319      8413  TIP3      H1            -36.4428903985       -0.8759857466       21.9734953365  SOLV      8402            0.0000000000
     25320      8413  TIP3      H2            -35.3444303985        0.0282242534       21.4561153365  SOLV      8402            0.0000000000
     25321      8414  TIP3      OH2           -31.9569603985        8.4912542534       19.6891553365  SOLV      8403            0.0000000000
     25322      8414  TIP3      H1            -32.7018603985        7.9837842534       19.3669453365  SOLV      8403            0.0000000000
     25323      8414  TIP3      H2            -32.0912403985        8.5400542534       20.6356353365  SOLV      8403            0.0000000000
     25324      8415  TIP3      OH2           -24.8070703985        7.6240742534       28.4759153365  SOLV      8404            0.0000000000
     25325      8415  TIP3      H1            -24.1651903985        8.0807042534       27.9321353365  SOLV      8404            0.0000000000
     25326      8415  TIP3      H2            -25.6373803985        7.7373142534       28.0133253365  SOLV      8404            0.0000000000
     25327      8416  TIP3      OH2           -28.0592803985        1.3052442534       17.8884153365  SOLV      8405            0.0000000000
     25328      8416  TIP3      H1            -28.9978603985        1.4168042534       17.7372953365  SOLV      8405            0.0000000000
     25329      8416  TIP3      H2            -27.7620703985        2.1619342534       18.1949853365  SOLV      8405            0.0000000000
     25330      8417  TIP3      OH2           -27.3409303985        3.1725142534       19.5491553365  SOLV      8406            0.0000000000
     25331      8417  TIP3      H1            -26.4490303985        3.0350142534       19.8682753365  SOLV      8406            0.0000000000
     25332      8417  TIP3      H2            -27.2845703985        3.9631242534       19.0125053365  SOLV      8406            0.0000000000
     25333      8418  TIP3      OH2           -36.8321303985        7.7862542534       25.4589453365  SOLV      8407            0.0000000000
     25334      8418  TIP3      H1            -36.0874103985        7.7838242534       24.8575953365  SOLV      8407            0.0000000000
     25335      8418  TIP3      H2            -36.7544703985        6.9626342534       25.9404553365  SOLV      8407            0.0000000000
     25336      8419  TIP3      OH2           -29.8315503985        9.9496842534       18.7146153365  SOLV      8408            0.0000000000
     25337      8419  TIP3      H1            -30.1267103985       10.7764742534       19.0960953365  SOLV      8408            0.0000000000
     25338      8419  TIP3      H2            -30.5345503985        9.3303742534       18.9107553365  SOLV      8408            0.0000000000
     25339      8420  TIP3      OH2           -28.1873903985       11.1371342534       30.8765653365  SOLV      8409            0.0000000000
     25340      8420  TIP3      H1            -29.0879603985       11.3203942534       30.6089553365  SOLV      8409            0.0000000000
     25341      8420  TIP3      H2            -28.1532803985       11.3960642534       31.7974453365  SOLV      8409            0.0000000000
     25342      8421  TIP3      OH2           -22.4560603985        3.3819242534       19.2438253365  SOLV      8410            0.0000000000
     25343      8421  TIP3      H1            -23.0104303985        2.9857242534       18.5715753365  SOLV      8410            0.0000000000
     25344      8421  TIP3      H2            -22.3557003985        4.2924442534       18.9661553365  SOLV      8410            0.0000000000
     25345      8422  TIP3      OH2           -22.4928603985        9.1820942534       32.0809753365  SOLV      8411            0.0000000000
     25346      8422  TIP3      H1            -23.3440103985        9.4204742534       31.7136153365  SOLV      8411            0.0000000000
     25347      8422  TIP3      H2            -21.9025203985        9.1654142534       31.3276853365  SOLV      8411            0.0000000000
     25348      8423  TIP3      OH2           -24.1608903985       12.1679642534       19.7090353365  SOLV      8412            0.0000000000
     25349      8423  TIP3      H1            -24.5337803985       11.3423442534       20.0180953365  SOLV      8412            0.0000000000
     25350      8423  TIP3      H2            -23.8835403985       11.9849042534       18.8113753365  SOLV      8412            0.0000000000
     25351      8424  TIP3      OH2           -27.0005003985        6.9759142534       26.7302253365  SOLV      8413            0.0000000000
     25352      8424  TIP3      H1            -27.9288103985        6.7441042534       26.7031553365  SOLV      8413            0.0000000000
     25353      8424  TIP3      H2            -26.5493903985        6.1988942534       26.4001053365  SOLV      8413            0.0000000000
     25354      8425  TIP3      OH2           -34.4571903985       11.3040742534       22.8630953365  SOLV      8414            0.0000000000
     25355      8425  TIP3      H1            -33.9299703985       12.0775142534       22.6629753365  SOLV      8414            0.0000000000
     25356      8425  TIP3      H2            -35.3373403985       11.5289942534       22.5614953365  SOLV      8414            0.0000000000
     25357      8426  TIP3      OH2           -33.0299603985        8.9670642534       22.4395253365  SOLV      8415            0.0000000000
     25358      8426  TIP3      H1            -33.2709603985        9.8925042534       22.4810553365  SOLV      8415            0.0000000000
     25359      8426  TIP3      H2            -33.7706003985        8.5081942534       22.8359153365  SOLV      8415            0.0000000000
     25360      8427  TIP3      OH2           -32.5153003985       13.1164242534       28.7546353365  SOLV      8416            0.0000000000
     25361      8427  TIP3      H1            -32.1528303985       13.9709842534       28.5210753365  SOLV      8416            0.0000000000
     25362      8427  TIP3      H2            -31.9837803985       12.8245842534       29.4952653365  SOLV      8416            0.0000000000
     25363      8428  TIP3      OH2           -28.9712203985        9.2154942534       28.4551953365  SOLV      8417            0.0000000000
     25364      8428  TIP3      H1            -29.3970903985        8.9876642534       29.2815953365  SOLV      8417            0.0000000000
     25365      8428  TIP3      H2            -28.3906403985        8.4766742534       28.2727253365  SOLV      8417            0.0000000000
     25366      8429  TIP3      OH2           -26.7683303985       10.1445442534       17.5290953365  SOLV      8418            0.0000000000
     25367      8429  TIP3      H1            -26.4150203985        9.7645242534       18.3334453365  SOLV      8418            0.0000000000
     25368      8429  TIP3      H2            -27.7169803985       10.0510242534       17.6160253365  SOLV      8418            0.0000000000
     25369      8430  TIP3      OH2           -26.3128003985       13.7674442534       30.9246753365  SOLV      8419            0.0000000000
     25370      8430  TIP3      H1            -26.9144803985       13.2117342534       30.4293053365  SOLV      8419            0.0000000000
     25371      8430  TIP3      H2            -26.0314303985       14.4344242534       30.2984153365  SOLV      8419            0.0000000000
     25372      8431  TIP3      OH2           -22.2648903985       14.6237942534       17.7301153365  SOLV      8420            0.0000000000
     25373      8431  TIP3      H1            -21.5211003985       15.2098442534       17.5902753365  SOLV      8420            0.0000000000
     25374      8431  TIP3      H2            -22.9590803985       15.1923742534       18.0633553365  SOLV      8420            0.0000000000
     25375      8432  TIP3      OH2           -25.9024003985        8.8167442534       19.7558853365  SOLV      8421            0.0000000000
     25376      8432  TIP3      H1            -26.1796403985        8.0886742534       20.3119953365  SOLV      8421            0.0000000000
     25377      8432  TIP3      H2            -24.9751003985        8.9359442534       19.9611453365  SOLV      8421            0.0000000000
     25378      8433  TIP3      OH2           -32.6775503985       11.2561542534       15.9760953365  SOLV      8422            0.0000000000
     25379      8433  TIP3      H1            -32.4385703985       10.5079642534       15.4289853365  SOLV      8422            0.0000000000
     25380      8433  TIP3      H2            -32.9464203985       10.8683242534       16.8088753365  SOLV      8422            0.0000000000
     25381      8434  TIP3      OH2           -33.7404903985       10.8265342534       18.4323553365  SOLV      8423            0.0000000000
     25382      8434  TIP3      H1            -33.5936903985       10.3065142534       19.2224453365  SOLV      8423            0.0000000000
     25383      8434  TIP3      H2            -33.7433203985       11.7332942534       18.7389453365  SOLV      8423            0.0000000000
     25384      8435  TIP3      OH2           -28.6713803985        0.3934142534       20.3190253365  SOLV      8424            0.0000000000
     25385      8435  TIP3      H1            -28.4515503985        0.8649542534       19.5155653365  SOLV      8424            0.0000000000
     25386      8435  TIP3      H2            -28.1129803985        0.7876742534       20.9890853365  SOLV      8424            0.0000000000
     25387      8436  TIP3      OH2           -31.0027703985       12.5238942534       19.1817753365  SOLV      8425            0.0000000000
     25388      8436  TIP3      H1            -31.8191603985       13.0208642534       19.2342053365  SOLV      8425            0.0000000000
     25389      8436  TIP3      H2            -30.4731403985       12.9992442534       18.5416553365  SOLV      8425            0.0000000000
     25390      8437  TIP3      OH2           -31.4713903985        2.1212942534       21.1538653365  SOLV      8426            0.0000000000
     25391      8437  TIP3      H1            -30.6591303985        2.6256142534       21.2000353365  SOLV      8426            0.0000000000
     25392      8437  TIP3      H2            -31.7160903985        1.9762642534       22.0678253365  SOLV      8426            0.0000000000
     25393      8438  TIP3      OH2           -30.5877203985       -0.7974057466       22.0919753365  SOLV      8427            0.0000000000
     25394      8438  TIP3      H1            -30.9343703985       -0.1803457466       22.7364053365  SOLV      8427            0.0000000000
     25395      8438  TIP3      H2            -29.9290303985       -0.2968357466       21.6105253365  SOLV      8427            0.0000000000
     25396      8439  TIP3      OH2           -33.6644603985       13.5676142534       19.1634653365  SOLV      8428            0.0000000000
     25397      8439  TIP3      H1            -33.5035903985       14.3673642534       18.6627253365  SOLV      8428            0.0000000000
     25398      8439  TIP3      H2            -33.8616803985       13.8742142534       20.0485253365  SOLV      8428            0.0000000000
     25399      8440  TIP3      OH2           -34.9300203985        0.2655342534       18.7792253365  SOLV      8429            0.0000000000
     25400      8440  TIP3      H1            -35.0135403985        1.1538442534       19.1258653365  SOLV      8429            0.0000000000
     25401      8440  TIP3      H2            -34.0399903985        0.0002042534       19.0109053365  SOLV      8429            0.0000000000
     25402      8441  TIP3      OH2           -24.7311703985        1.0145942534       31.1734953365  SOLV      8430            0.0000000000
     25403      8441  TIP3      H1            -25.6475903985        1.2767642534       31.0858653365  SOLV      8430            0.0000000000
     25404      8441  TIP3      H2            -24.3956703985        1.0114942534       30.2770253365  SOLV      8430            0.0000000000
     25405      8442  TIP3      OH2           -26.1290703985        4.7646942534       25.2692253365  SOLV      8431            0.0000000000
     25406      8442  TIP3      H1            -26.9266303985        4.3497142534       24.9407253365  SOLV      8431            0.0000000000
     25407      8442  TIP3      H2            -25.6839603985        4.0740642534       25.7602753365  SOLV      8431            0.0000000000
     25408      8443  TIP3      OH2           -25.0426103985       14.0209442534       26.8915753365  SOLV      8432            0.0000000000
     25409      8443  TIP3      H1            -25.1981803985       14.6993842534       26.2345053365  SOLV      8432            0.0000000000
     25410      8443  TIP3      H2            -24.1099703985       14.0928742534       27.0946353365  SOLV      8432            0.0000000000
     25411      8444  TIP3      OH2           -30.6393703985       13.1192942534       16.1146953365  SOLV      8433            0.0000000000
     25412      8444  TIP3      H1            -31.2832703985       12.4881542534       16.4360653365  SOLV      8433            0.0000000000
     25413      8444  TIP3      H2            -29.8775403985       12.5880942534       15.8830453365  SOLV      8433            0.0000000000
     25414      8445  TIP3      OH2           -28.1544603985       11.9913442534       33.4686653365  SOLV      8434            0.0000000000
     25415      8445  TIP3      H1            -28.5055103985       11.1346442534       33.7117053365  SOLV      8434            0.0000000000
     25416      8445  TIP3      H2            -27.4281403985       12.1340142534       34.0755653365  SOLV      8434            0.0000000000
     25417      8446  TIP3      OH2           -26.0350803985       12.9362842534       16.3484953365  SOLV      8435            0.0000000000
     25418      8446  TIP3      H1            -25.7520403985       12.1418042534       16.8011853365  SOLV      8435            0.0000000000
     25419      8446  TIP3      H2            -25.2952903985       13.1693842534       15.7876053365  SOLV      8435            0.0000000000
     25420      8447  TIP3      OH2           -35.0803503985        8.8457742534       16.2059853365  SOLV      8436            0.0000000000
     25421      8447  TIP3      H1            -35.0159403985        8.0517342534       16.7366253365  SOLV      8436            0.0000000000
     25422      8447  TIP3      H2            -34.4274303985        8.7270542534       15.5161853365  SOLV      8436            0.0000000000
     25423      8448  TIP3      OH2           -27.0315903985        8.3877442534       30.8893953365  SOLV      8437            0.0000000000
     25424      8448  TIP3      H1            -26.2861103985        8.9761142534       30.7697953365  SOLV      8437            0.0000000000
     25425      8448  TIP3      H2            -27.7889103985        8.9697142534       30.9527053365  SOLV      8437            0.0000000000
     25426      8449  TIP3      OH2           -33.9309703985        6.8183942534       18.5117853365  SOLV      8438            0.0000000000
     25427      8449  TIP3      H1            -34.3907703985        6.3342242534       19.1976353365  SOLV      8438            0.0000000000
     25428      8449  TIP3      H2            -33.6761003985        6.1499342534       17.8758353365  SOLV      8438            0.0000000000
     25429      8450  TIP3      OH2           -32.8599303985        5.0615742534       16.7741053365  SOLV      8439            0.0000000000
     25430      8450  TIP3      H1            -33.0404303985        4.9066942534       15.8469353365  SOLV      8439            0.0000000000
     25431      8450  TIP3      H2            -31.9098803985        5.1694442534       16.8188953365  SOLV      8439            0.0000000000
     25432      8451  TIP3      OH2           -26.5759203985        6.4790842534       32.7881153365  SOLV      8440            0.0000000000
     25433      8451  TIP3      H1            -26.8574203985        7.1885442534       32.2104953365  SOLV      8440            0.0000000000
     25434      8451  TIP3      H2            -25.6334903985        6.4063842534       32.6372353365  SOLV      8440            0.0000000000
     25435      8452  TIP3      OH2           -32.9627603985       15.7519442534       17.7754653365  SOLV      8441            0.0000000000
     25436      8452  TIP3      H1            -32.0296903985       15.9098142534       17.9193053365  SOLV      8441            0.0000000000
     25437      8452  TIP3      H2            -33.2268803985       16.4272442534       17.1506153365  SOLV      8441            0.0000000000
     25438      8453  TIP3      OH2           -22.3268103985       14.6715142534       27.1207653365  SOLV      8442            0.0000000000
     25439      8453  TIP3      H1            -22.3481403985       14.8563542534       28.0597053365  SOLV      8442            0.0000000000
     25440      8453  TIP3      H2            -21.6361903985       15.2399142534       26.7799053365  SOLV      8442            0.0000000000
     25441      8454  TIP3      OH2           -22.7635203985       14.2386242534       30.0426753365  SOLV      8443            0.0000000000
     25442      8454  TIP3      H1            -23.2506503985       13.5030342534       29.6714153365  SOLV      8443            0.0000000000
     25443      8454  TIP3      H2            -22.2142503985       13.8450142534       30.7206153365  SOLV      8443            0.0000000000
     25444      8455  TIP3      OH2           -24.3127903985       10.0284342534       34.6807053365  SOLV      8444            0.0000000000
     25445      8455  TIP3      H1            -25.1786803985        9.9234042534       35.0749353365  SOLV      8444            0.0000000000
     25446      8455  TIP3      H2            -23.9362003985       10.7867642534       35.1271753365  SOLV      8444            0.0000000000
     25447      8456  TIP3      OH2           -23.0118203985        8.2848042534       20.1949553365  SOLV      8445            0.0000000000
     25448      8456  TIP3      H1            -22.1616803985        8.7058942534       20.3221153365  SOLV      8445            0.0000000000
     25449      8456  TIP3      H2            -23.0063103985        7.5448142534       20.8020953365  SOLV      8445            0.0000000000
     25450      8457  TIP3      OH2           -22.6172603985        6.3385442534       22.0185253365  SOLV      8446            0.0000000000
     25451      8457  TIP3      H1            -23.3438003985        5.8588042534       22.4162853365  SOLV      8446            0.0000000000
     25452      8457  TIP3      H2            -22.0359303985        6.5440142534       22.7506853365  SOLV      8446            0.0000000000
     25453      8458  TIP3      OH2           -22.8581403985        9.1232942534       26.9662853365  SOLV      8447            0.0000000000
     25454      8458  TIP3      H1            -22.0247203985        8.7452942534       26.6856453365  SOLV      8447            0.0000000000
     25455      8458  TIP3      H2            -22.7461103985       10.0664142534       26.8471953365  SOLV      8447            0.0000000000
     25456      8459  TIP3      OH2           -24.3719103985       12.0010442534       29.2731253365  SOLV      8448            0.0000000000
     25457      8459  TIP3      H1            -25.0193803985       12.3261942534       29.8986453365  SOLV      8448            0.0000000000
     25458      8459  TIP3      H2            -24.8895103985       11.5608142534       28.5989553365  SOLV      8448            0.0000000000
     25459      8460  TIP3      OH2           -24.0000503985        3.4789542534       16.9603653365  SOLV      8449            0.0000000000
     25460      8460  TIP3      H1            -23.9036103985        4.1456542534       16.2803353365  SOLV      8449            0.0000000000
     25461      8460  TIP3      H2            -24.1400903985        2.6635842534       16.4789153365  SOLV      8449            0.0000000000
     25462      8461  TIP3      OH2           -24.8305803985        4.8591942534       22.5813953365  SOLV      8450            0.0000000000
     25463      8461  TIP3      H1            -24.9807003985        3.9140542534       22.5611753365  SOLV      8450            0.0000000000
     25464      8461  TIP3      H2            -25.1841303985        5.1403342534       23.4253053365  SOLV      8450            0.0000000000
     25465      8462  TIP3      OH2           -23.9742903985        6.8295242534       32.2202253365  SOLV      8451            0.0000000000
     25466      8462  TIP3      H1            -23.3915603985        6.0947542534       32.4119453365  SOLV      8451            0.0000000000
     25467      8462  TIP3      H2            -23.4103603985        7.6015542534       32.2668053365  SOLV      8451            0.0000000000
     25468      8463  TIP3      OH2           -22.4775803985        4.7321042534       32.9047653365  SOLV      8452            0.0000000000
     25469      8463  TIP3      H1            -23.3409103985        4.3533142534       32.7392353365  SOLV      8452            0.0000000000
     25470      8463  TIP3      H2            -21.8732103985        3.9935842534       32.8303453365  SOLV      8452            0.0000000000
     25471      8464  TIP3      OH2           -24.7526703985        0.8869342534       16.0779153365  SOLV      8453            0.0000000000
     25472      8464  TIP3      H1            -24.1420903985        0.5156142534       16.7147353365  SOLV      8453            0.0000000000
     25473      8464  TIP3      H2            -25.5895203985        0.4656242534       16.2739153365  SOLV      8453            0.0000000000
     25474      8465  TIP3      OH2           -25.1201003985        2.4417742534       21.0439053365  SOLV      8454            0.0000000000
     25475      8465  TIP3      H1            -24.8403903985        1.5348142534       21.1680753365  SOLV      8454            0.0000000000
     25476      8465  TIP3      H2            -24.3609303985        2.8759242534       20.6548253365  SOLV      8454            0.0000000000
     25477      8466  TIP3      OH2           -24.5082703985        3.0235142534       26.4797953365  SOLV      8455            0.0000000000
     25478      8466  TIP3      H1            -23.5754703985        3.2355042534       26.4453953365  SOLV      8455            0.0000000000
     25479      8466  TIP3      H2            -24.7435203985        3.1247242534       27.4020953365  SOLV      8455            0.0000000000
     25480      8467  TIP3      OH2           -24.4790803985        3.7600442534       29.2557353365  SOLV      8456            0.0000000000
     25481      8467  TIP3      H1            -25.3219503985        4.0280842534       29.6217153365  SOLV      8456            0.0000000000
     25482      8467  TIP3      H2            -24.0366503985        4.5822342534       29.0448453365  SOLV      8456            0.0000000000
     25483      8468  TIP3      OH2           -24.5066203985       -0.2952957466       21.0921053365  SOLV      8457            0.0000000000
     25484      8468  TIP3      H1            -24.3241203985       -0.7441457466       21.9176053365  SOLV      8457            0.0000000000
     25485      8468  TIP3      H2            -25.1063303985       -0.8798557466       20.6285653365  SOLV      8457            0.0000000000
     25486      8469  TIP3      OH2           -22.6400003985       -0.2274857466       17.6201353365  SOLV      8458            0.0000000000
     25487      8469  TIP3      H1            -22.2277403985       -0.9489157466       17.1449353365  SOLV      8458            0.0000000000
     25488      8469  TIP3      H2            -21.9583503985        0.4419742534       17.6785653365  SOLV      8458            0.0000000000
     25489      8470  TIP3      OH2           -25.5882103985       14.7614542534       22.6929453365  SOLV      8459            0.0000000000
     25490      8470  TIP3      H1            -24.9359203985       14.4136642534       22.0848553365  SOLV      8459            0.0000000000
     25491      8470  TIP3      H2            -25.0778303985       15.2497742534       23.3389153365  SOLV      8459            0.0000000000
     25492      8471  TIP3      OH2           -23.6756103985       -2.0608457466       30.7774453365  SOLV      8460            0.0000000000
     25493      8471  TIP3      H1            -24.4882603985       -1.7358157466       30.3899153365  SOLV      8460            0.0000000000
     25494      8471  TIP3      H2            -23.4427603985       -2.8209957466       30.2443553365  SOLV      8460            0.0000000000
     25495      8472  TIP3      OH2           -30.6696803985       15.4093842534       27.7472853365  SOLV      8461            0.0000000000
     25496      8472  TIP3      H1            -31.1262803985       15.9383542534       27.0931253365  SOLV      8461            0.0000000000
     25497      8472  TIP3      H2            -30.5068803985       16.0125242534       28.4725153365  SOLV      8461            0.0000000000
     25498      8473  TIP3      OH2           -28.3420503985       14.2873442534       28.6923153365  SOLV      8462            0.0000000000
     25499      8473  TIP3      H1            -29.2466803985       14.4523642534       28.4265253365  SOLV      8462            0.0000000000
     25500      8473  TIP3      H2            -27.9131903985       15.1405642534       28.6266553365  SOLV      8462            0.0000000000
     25501      8474  TIP3      OH2           -25.7378603985       15.8572542534       28.9870953365  SOLV      8463            0.0000000000
     25502      8474  TIP3      H1            -25.9196603985       16.7731442534       28.7765853365  SOLV      8463            0.0000000000
     25503      8474  TIP3      H2            -25.5610803985       15.4469642534       28.1405553365  SOLV      8463            0.0000000000
     25504      8475  TIP3      OH2           -33.7541303985       13.7241542534       25.9559353365  SOLV      8464            0.0000000000
     25505      8475  TIP3      H1            -33.5415603985       12.8360542534       25.6690253365  SOLV      8464            0.0000000000
     25506      8475  TIP3      H2            -33.6896203985       13.6899242534       26.9103353365  SOLV      8464            0.0000000000
     25507      8476  TIP3      OH2           -30.2457603985       -0.6117857466       25.1002653365  SOLV      8465            0.0000000000
     25508      8476  TIP3      H1            -30.9200803985       -1.2412257466       25.3558453365  SOLV      8465            0.0000000000
     25509      8476  TIP3      H2            -29.6818403985       -1.0958957466       24.4970553365  SOLV      8465            0.0000000000
     25510      8477  TIP3      OH2           -25.1030403985       -2.5043857466       25.2129753365  SOLV      8466            0.0000000000
     25511      8477  TIP3      H1            -24.4992803985       -1.9568457466       24.7110753365  SOLV      8466            0.0000000000
     25512      8477  TIP3      H2            -25.9728403985       -2.1853457466       24.9723853365  SOLV      8466            0.0000000000
     25513      8478  TIP3      OH2           -23.3760003985       -1.3655157466       23.5460653365  SOLV      8467            0.0000000000
     25514      8478  TIP3      H1            -22.7642503985       -1.8799457466       23.0194253365  SOLV      8467            0.0000000000
     25515      8478  TIP3      H2            -22.9936603985       -0.4883057466       23.5695053365  SOLV      8467            0.0000000000
     25516      8479  TIP3      OH2           -39.0826703985       -2.1799457466       18.7258653365  SOLV      8468            0.0000000000
     25517      8479  TIP3      H1            -38.6436003985       -1.5688957466       18.1342153365  SOLV      8468            0.0000000000
     25518      8479  TIP3      H2            -39.7164303985       -1.6415357466       19.1998653365  SOLV      8468            0.0000000000
     25519      8480  TIP3      OH2           -33.3397503985       -2.0510457466       22.7355653365  SOLV      8469            0.0000000000
     25520      8480  TIP3      H1            -32.4654103985       -1.6626157466       22.7059953365  SOLV      8469            0.0000000000
     25521      8480  TIP3      H2            -33.4756703985       -2.2662657466       23.6582853365  SOLV      8469            0.0000000000
     25522      8481  TIP3      OH2           -27.7829103985       -2.0210657466       24.3847353365  SOLV      8470            0.0000000000
     25523      8481  TIP3      H1            -27.7067503985       -1.9259057466       23.4353353365  SOLV      8470            0.0000000000
     25524      8481  TIP3      H2            -28.0579903985       -2.9287757466       24.5136453365  SOLV      8470            0.0000000000
     25525      8482  TIP3      OH2           -26.4296503985       -1.9952857466       20.0772353365  SOLV      8471            0.0000000000
     25526      8482  TIP3      H1            -27.1325403985       -1.3803657466       19.8673753365  SOLV      8471            0.0000000000
     25527      8482  TIP3      H2            -26.8745103985       -2.8326157466       20.2083253365  SOLV      8471            0.0000000000
     25528      8483  TIP3      OH2           -37.2217603985       -0.2637957466       17.1682753365  SOLV      8472            0.0000000000
     25529      8483  TIP3      H1            -36.7304203985       -0.8935557466       16.6408253365  SOLV      8472            0.0000000000
     25530      8483  TIP3      H2            -36.5981303985        0.0321442534       17.8313953365  SOLV      8472            0.0000000000
     25531      8484  TIP3      OH2           -32.1957503985        0.0293542534       19.6253253365  SOLV      8473            0.0000000000
     25532      8484  TIP3      H1            -32.0176203985       -0.6173257466       20.3081853365  SOLV      8473            0.0000000000
     25533      8484  TIP3      H2            -32.2491303985        0.8631242534       20.0924353365  SOLV      8473            0.0000000000
     25534      8485  TIP3      OH2           -30.3173703985       14.9777642534       18.0209953365  SOLV      8474            0.0000000000
     25535      8485  TIP3      H1            -29.4513503985       15.3445042534       17.8428153365  SOLV      8474            0.0000000000
     25536      8485  TIP3      H2            -30.5640903985       14.5385642534       17.2070753365  SOLV      8474            0.0000000000
     25537      8486  TIP3      OH2           -23.6084103985       14.5407942534       20.7001053365  SOLV      8475            0.0000000000
     25538      8486  TIP3      H1            -23.8027003985       13.7930042534       20.1350653365  SOLV      8475            0.0000000000
     25539      8486  TIP3      H2            -23.6474003985       15.2988042534       20.1168953365  SOLV      8475            0.0000000000
     25540      8487  TIP3      OH2           -24.3907903985       13.2920342534       32.8502853365  SOLV      8476            0.0000000000
     25541      8487  TIP3      H1            -25.1726003985       13.1058342534       32.3303453365  SOLV      8476            0.0000000000
     25542      8487  TIP3      H2            -24.4628003985       14.2214642534       33.0675353365  SOLV      8476            0.0000000000
     25543      8488  TIP3      OH2            -9.9847503985        7.1784742534       22.8810053365  SOLV      8477            0.0000000000
     25544      8488  TIP3      H1             -9.8956403985        8.1222942534       22.7487153365  SOLV      8477            0.0000000000
     25545      8488  TIP3      H2            -10.6229903985        6.9031142534       22.2229453365  SOLV      8477            0.0000000000
     25546      8489  TIP3      OH2           -11.0516203985        6.4335442534       26.2998253365  SOLV      8478            0.0000000000
     25547      8489  TIP3      H1            -11.0898703985        5.7871742534       27.0047853365  SOLV      8478            0.0000000000
     25548      8489  TIP3      H2            -11.3739703985        5.9669842534       25.5286953365  SOLV      8478            0.0000000000
     25549      8490  TIP3      OH2           -18.6831203985        6.0477542534       27.8928153365  SOLV      8479            0.0000000000
     25550      8490  TIP3      H1            -18.6419103985        5.4220842534       28.6160553365  SOLV      8479            0.0000000000
     25551      8490  TIP3      H2            -17.9803503985        6.6716142534       28.0748553365  SOLV      8479            0.0000000000
     25552      8491  TIP3      OH2            -7.3456003985        9.3725842534       24.6013353365  SOLV      8480            0.0000000000
     25553      8491  TIP3      H1             -7.7863303985        8.6521842534       25.0518953365  SOLV      8480            0.0000000000
     25554      8491  TIP3      H2             -7.3586303985       10.0933042534       25.2311053365  SOLV      8480            0.0000000000
     25555      8492  TIP3      OH2           -17.7598103985       10.4976442534       26.4277253365  SOLV      8481            0.0000000000
     25556      8492  TIP3      H1            -18.1292903985        9.6956942534       26.0581553365  SOLV      8481            0.0000000000
     25557      8492  TIP3      H2            -16.8187003985       10.3291342534       26.4740653365  SOLV      8481            0.0000000000
     25558      8493  TIP3      OH2           -21.1497603985        4.1579042534       21.8206053365  SOLV      8482            0.0000000000
     25559      8493  TIP3      H1            -21.5974203985        5.0037742534       21.8022553365  SOLV      8482            0.0000000000
     25560      8493  TIP3      H2            -21.7106403985        3.5783242534       21.3051153365  SOLV      8482            0.0000000000
     25561      8494  TIP3      OH2           -20.4391503985        6.3198642534       23.9464053365  SOLV      8483            0.0000000000
     25562      8494  TIP3      H1            -20.2258003985        5.5500242534       24.4737053365  SOLV      8483            0.0000000000
     25563      8494  TIP3      H2            -19.7013903985        6.4095342534       23.3431653365  SOLV      8483            0.0000000000
     25564      8495  TIP3      OH2           -10.2340503985       14.4767542534       24.8133753365  SOLV      8484            0.0000000000
     25565      8495  TIP3      H1             -9.6144103985       13.8002242534       24.5402953365  SOLV      8484            0.0000000000
     25566      8495  TIP3      H2            -10.4423103985       14.2588342534       25.7218653365  SOLV      8484            0.0000000000
     25567      8496  TIP3      OH2           -12.6621803985        8.8656842534       26.7059253365  SOLV      8485            0.0000000000
     25568      8496  TIP3      H1            -12.3583903985        8.1798242534       26.1113353365  SOLV      8485            0.0000000000
     25569      8496  TIP3      H2            -11.9407803985        8.9845542534       27.3237253365  SOLV      8485            0.0000000000
     25570      8497  TIP3      OH2            -3.9992003985        0.4672142534       27.5665453365  SOLV      8486            0.0000000000
     25571      8497  TIP3      H1             -3.9499803985        1.0773342534       28.3024553365  SOLV      8486            0.0000000000
     25572      8497  TIP3      H2             -3.5736903985        0.9283042534       26.8436553365  SOLV      8486            0.0000000000
     25573      8498  TIP3      OH2            -9.5214803985        3.2599242534       27.0334053365  SOLV      8487            0.0000000000
     25574      8498  TIP3      H1             -9.3788903985        2.3136242534       27.0535653365  SOLV      8487            0.0000000000
     25575      8498  TIP3      H2             -9.6275803985        3.4669042534       26.1048953365  SOLV      8487            0.0000000000
     25576      8499  TIP3      OH2           -16.3666503985        1.3615642534       24.3058853365  SOLV      8488            0.0000000000
     25577      8499  TIP3      H1            -16.3235403985        2.2214142534       23.8875153365  SOLV      8488            0.0000000000
     25578      8499  TIP3      H2            -16.8242403985        0.8090342534       23.6722053365  SOLV      8488            0.0000000000
     25579      8500  TIP3      OH2            -8.6443803985        1.4921242534       22.7067153365  SOLV      8489            0.0000000000
     25580      8500  TIP3      H1             -7.9979503985        1.1634442534       23.3314753365  SOLV      8489            0.0000000000
     25581      8500  TIP3      H2             -8.1344403985        2.0100242534       22.0838553365  SOLV      8489            0.0000000000
     25582      8501  TIP3      OH2           -19.7465003985        3.7581442534       25.0680253365  SOLV      8490            0.0000000000
     25583      8501  TIP3      H1            -19.0928403985        3.2083142534       25.5000353365  SOLV      8490            0.0000000000
     25584      8501  TIP3      H2            -19.7225703985        3.4840442534       24.1512253365  SOLV      8490            0.0000000000
     25585      8502  TIP3      OH2           -14.5900503985        5.3082742534       24.2831753365  SOLV      8491            0.0000000000
     25586      8502  TIP3      H1            -13.9739503985        4.7818142534       24.7925753365  SOLV      8491            0.0000000000
     25587      8502  TIP3      H2            -15.1761703985        4.6681442534       23.8795353365  SOLV      8491            0.0000000000
     25588      8503  TIP3      OH2            -3.6077403985        1.9451342534       29.8025253365  SOLV      8492            0.0000000000
     25589      8503  TIP3      H1             -4.2962803985        2.6032042534       29.7071853365  SOLV      8492            0.0000000000
     25590      8503  TIP3      H2             -3.5922803985        1.7479242534       30.7390653365  SOLV      8492            0.0000000000
     25591      8504  TIP3      OH2           -17.5564603985        0.2794042534       28.3799653365  SOLV      8493            0.0000000000
     25592      8504  TIP3      H1            -17.7752903985        0.8094642534       27.6135653365  SOLV      8493            0.0000000000
     25593      8504  TIP3      H2            -18.2243703985        0.5059542534       29.0271053365  SOLV      8493            0.0000000000
     25594      8505  TIP3      OH2           -10.1874803985        9.7795142534       21.9238753365  SOLV      8494            0.0000000000
     25595      8505  TIP3      H1            -10.4829703985        9.4567442534       21.0725653365  SOLV      8494            0.0000000000
     25596      8505  TIP3      H2            -10.5117003985       10.6791842534       21.9651353365  SOLV      8494            0.0000000000
     25597      8506  TIP3      OH2           -14.9873203985        7.9549742534       28.6673353365  SOLV      8495            0.0000000000
     25598      8506  TIP3      H1            -15.7274103985        8.5531242534       28.7708553365  SOLV      8495            0.0000000000
     25599      8506  TIP3      H2            -14.2733703985        8.5089342534       28.3516953365  SOLV      8495            0.0000000000
     25600      8507  TIP3      OH2            -6.8805403985        0.7830542534       24.6873053365  SOLV      8496            0.0000000000
     25601      8507  TIP3      H1             -7.0957403985        0.0173942534       25.2199053365  SOLV      8496            0.0000000000
     25602      8507  TIP3      H2             -6.2248003985        1.2555142534       25.2001553365  SOLV      8496            0.0000000000
     25603      8508  TIP3      OH2           -17.9627303985        2.1715842534       26.3321853365  SOLV      8497            0.0000000000
     25604      8508  TIP3      H1            -17.3491003985        2.8043442534       26.7054253365  SOLV      8497            0.0000000000
     25605      8508  TIP3      H2            -17.4506603985        1.6990842534       25.6758753365  SOLV      8497            0.0000000000
     25606      8509  TIP3      OH2           -16.5798903985        9.9192742534       29.4544853365  SOLV      8498            0.0000000000
     25607      8509  TIP3      H1            -16.5851303985       10.7986242534       29.0764153365  SOLV      8498            0.0000000000
     25608      8509  TIP3      H2            -17.4334803985        9.8356842534       29.8794753365  SOLV      8498            0.0000000000
     25609      8510  TIP3      OH2           -20.4588003985        9.5900642534       20.2364153365  SOLV      8499            0.0000000000
     25610      8510  TIP3      H1            -20.7307103985        9.8191642534       19.3477053365  SOLV      8499            0.0000000000
     25611      8510  TIP3      H2            -20.4132303985       10.4279442534       20.6969453365  SOLV      8499            0.0000000000
     25612      8511  TIP3      OH2            -6.8338303985       11.2116542534       26.9492653365  SOLV      8500            0.0000000000
     25613      8511  TIP3      H1             -7.7754603985       11.2700442534       27.1109553365  SOLV      8500            0.0000000000
     25614      8511  TIP3      H2             -6.5572203985       12.1177042534       26.8122353365  SOLV      8500            0.0000000000
     25615      8512  TIP3      OH2            -6.5331303985       -0.5018157466       28.3666553365  SOLV      8501            0.0000000000
     25616      8512  TIP3      H1             -7.2692103985        0.1088942534       28.3287853365  SOLV      8501            0.0000000000
     25617      8512  TIP3      H2             -5.8497303985       -0.0869157466       27.8402953365  SOLV      8501            0.0000000000
     25618      8513  TIP3      OH2           -13.5299903985       -2.4150857466       25.8324553365  SOLV      8502            0.0000000000
     25619      8513  TIP3      H1            -13.6475703985       -3.3634857466       25.7782853365  SOLV      8502            0.0000000000
     25620      8513  TIP3      H2            -14.3849803985       -2.0824757466       26.1055653365  SOLV      8502            0.0000000000
     25621      8514  TIP3      OH2            -8.5817103985       12.9930042534       23.5744253365  SOLV      8503            0.0000000000
     25622      8514  TIP3      H1             -8.1564803985       12.2857942534       23.0893853365  SOLV      8503            0.0000000000
     25623      8514  TIP3      H2             -8.2647103985       13.7942742534       23.1576453365  SOLV      8503            0.0000000000
     25624      8515  TIP3      OH2            -7.4220603985       10.8938542534       22.0830853365  SOLV      8504            0.0000000000
     25625      8515  TIP3      H1             -7.6795803985       10.2038642534       21.4716753365  SOLV      8504            0.0000000000
     25626      8515  TIP3      H2             -7.3509803985       10.4509742534       22.9286753365  SOLV      8504            0.0000000000
     25627      8516  TIP3      OH2            -5.7360403985        9.4605242534       30.5604353365  SOLV      8505            0.0000000000
     25628      8516  TIP3      H1             -5.5964103985        8.8687742534       29.8211353365  SOLV      8505            0.0000000000
     25629      8516  TIP3      H2             -5.5687603985       10.3331142534       30.2043153365  SOLV      8505            0.0000000000
     25630      8517  TIP3      OH2           -11.2635003985        6.4224742534       20.3330353365  SOLV      8506            0.0000000000
     25631      8517  TIP3      H1            -11.9749503985        6.9574442534       19.9810853365  SOLV      8506            0.0000000000
     25632      8517  TIP3      H2            -10.5725403985        6.4776842534       19.6729253365  SOLV      8506            0.0000000000
     25633      8518  TIP3      OH2           -11.2095803985        4.8799042534       17.3715353365  SOLV      8507            0.0000000000
     25634      8518  TIP3      H1            -10.5085903985        4.9025942534       18.0229353365  SOLV      8507            0.0000000000
     25635      8518  TIP3      H2            -10.9072903985        4.2518742534       16.7154653365  SOLV      8507            0.0000000000
     25636      8519  TIP3      OH2            -3.8941103985        5.8003242534       28.6264753365  SOLV      8508            0.0000000000
     25637      8519  TIP3      H1             -4.5467003985        6.4948842534       28.7155653365  SOLV      8508            0.0000000000
     25638      8519  TIP3      H2             -3.4290803985        6.0104142534       27.8166353365  SOLV      8508            0.0000000000
     25639      8520  TIP3      OH2            -7.8577303985        6.6318042534       21.2846253365  SOLV      8509            0.0000000000
     25640      8520  TIP3      H1             -8.5896303985        6.8601742534       21.8576853365  SOLV      8509            0.0000000000
     25641      8520  TIP3      H2             -7.4105103985        5.9180742534       21.7393753365  SOLV      8509            0.0000000000
     25642      8521  TIP3      OH2            -7.9603803985        4.8060642534       30.3523253365  SOLV      8510            0.0000000000
     25643      8521  TIP3      H1             -7.8804703985        5.5695042534       30.9241753365  SOLV      8510            0.0000000000
     25644      8521  TIP3      H2             -8.5616103985        5.0853042534       29.6618353365  SOLV      8510            0.0000000000
     25645      8522  TIP3      OH2           -16.2123603985        7.2624242534       23.1671253365  SOLV      8511            0.0000000000
     25646      8522  TIP3      H1            -16.5428403985        6.8917642534       22.3488253365  SOLV      8511            0.0000000000
     25647      8522  TIP3      H2            -15.6239503985        6.5918242534       23.5139553365  SOLV      8511            0.0000000000
     25648      8523  TIP3      OH2           -14.8456103985       10.6904842534       25.8483453365  SOLV      8512            0.0000000000
     25649      8523  TIP3      H1            -14.9404803985       10.1117942534       25.0918053365  SOLV      8512            0.0000000000
     25650      8523  TIP3      H2            -14.1162503985       10.3190542534       26.3446253365  SOLV      8512            0.0000000000
     25651      8524  TIP3      OH2           -15.8458103985        6.0309842534       26.8006253365  SOLV      8513            0.0000000000
     25652      8524  TIP3      H1            -15.2805603985        6.1524042534       26.0377453365  SOLV      8513            0.0000000000
     25653      8524  TIP3      H2            -15.5269203985        6.6684842534       27.4394753365  SOLV      8513            0.0000000000
     25654      8525  TIP3      OH2            -9.5365903985       11.5341742534       27.5346753365  SOLV      8514            0.0000000000
     25655      8525  TIP3      H1             -9.7769303985       12.1964842534       28.1825953365  SOLV      8514            0.0000000000
     25656      8525  TIP3      H2             -9.7347703985       10.6996942534       27.9596353365  SOLV      8514            0.0000000000
     25657      8526  TIP3      OH2           -14.9657403985       10.4302542534       31.5178153365  SOLV      8515            0.0000000000
     25658      8526  TIP3      H1            -15.2769903985       11.2125742534       31.9731353365  SOLV      8515            0.0000000000
     25659      8526  TIP3      H2            -15.6157203985       10.2771642534       30.8320153365  SOLV      8515            0.0000000000
     25660      8527  TIP3      OH2            -8.9867803985        5.7940942534       18.9697453365  SOLV      8516            0.0000000000
     25661      8527  TIP3      H1             -8.4072303985        5.9441242534       19.7166353365  SOLV      8516            0.0000000000
     25662      8527  TIP3      H2             -8.5727803985        6.2648342534       18.2463853365  SOLV      8516            0.0000000000
     25663      8528  TIP3      OH2           -18.0457503985        6.6283642534       30.7463853365  SOLV      8517            0.0000000000
     25664      8528  TIP3      H1            -17.9754303985        7.2790442534       31.4448853365  SOLV      8517            0.0000000000
     25665      8528  TIP3      H2            -18.9365303985        6.7311142534       30.4114753365  SOLV      8517            0.0000000000
     25666      8529  TIP3      OH2           -11.2602903985       12.5309442534       22.4050553365  SOLV      8518            0.0000000000
     25667      8529  TIP3      H1            -10.7865303985       12.8265742534       23.1824753365  SOLV      8518            0.0000000000
     25668      8529  TIP3      H2            -11.8233603985       13.2691042534       22.1720153365  SOLV      8518            0.0000000000
     25669      8530  TIP3      OH2           -16.7261503985       12.5017542534       32.2811953365  SOLV      8519            0.0000000000
     25670      8530  TIP3      H1            -16.7186203985       12.3657242534       31.3337453365  SOLV      8519            0.0000000000
     25671      8530  TIP3      H2            -17.6421103985       12.3845642534       32.5331953365  SOLV      8519            0.0000000000
     25672      8531  TIP3      OH2            -5.2879403985       -2.4558657466       18.7827153365  SOLV      8520            0.0000000000
     25673      8531  TIP3      H1             -6.1878703985       -2.3169657466       19.0777753365  SOLV      8520            0.0000000000
     25674      8531  TIP3      H2             -5.0361003985       -1.6244057466       18.3808853365  SOLV      8520            0.0000000000
     25675      8532  TIP3      OH2           -17.2220903985        6.3318542534       20.7564053365  SOLV      8521            0.0000000000
     25676      8532  TIP3      H1            -17.5139603985        7.1000242534       20.2655353365  SOLV      8521            0.0000000000
     25677      8532  TIP3      H2            -17.8965703985        5.6724742534       20.5935453365  SOLV      8521            0.0000000000
     25678      8533  TIP3      OH2            -4.0988003985       11.9103742534       17.1591053365  SOLV      8522            0.0000000000
     25679      8533  TIP3      H1             -4.0254503985       12.8493942534       17.3296353365  SOLV      8522            0.0000000000
     25680      8533  TIP3      H2             -3.1932903985       11.6052342534       17.1028353365  SOLV      8522            0.0000000000
     25681      8534  TIP3      OH2           -21.1290803985        8.6947742534       29.5713853365  SOLV      8523            0.0000000000
     25682      8534  TIP3      H1            -21.6302403985        8.6667142534       28.7563553365  SOLV      8523            0.0000000000
     25683      8534  TIP3      H2            -21.1237103985        7.7890942534       29.8811153365  SOLV      8523            0.0000000000
     25684      8535  TIP3      OH2           -21.3788103985       11.4751542534       26.4554053365  SOLV      8524            0.0000000000
     25685      8535  TIP3      H1            -20.4327503985       11.3308542534       26.4363553365  SOLV      8524            0.0000000000
     25686      8535  TIP3      H2            -21.4911803985       12.2594342534       26.9925253365  SOLV      8524            0.0000000000
     25687      8536  TIP3      OH2            -3.1809603985       12.1411242534       32.1377753365  SOLV      8525            0.0000000000
     25688      8536  TIP3      H1             -3.2302803985       11.1859342534       32.1005353365  SOLV      8525            0.0000000000
     25689      8536  TIP3      H2             -4.0077303985       12.4086542534       32.5391553365  SOLV      8525            0.0000000000
     25690      8537  TIP3      OH2           -12.2025603985       11.7150442534       31.0139153365  SOLV      8526            0.0000000000
     25691      8537  TIP3      H1            -12.1151003985       12.5415042534       31.4888253365  SOLV      8526            0.0000000000
     25692      8537  TIP3      H2            -13.0660503985       11.3854242534       31.2628453365  SOLV      8526            0.0000000000
     25693      8538  TIP3      OH2           -11.7879803985       15.4874142534       20.8199753365  SOLV      8527            0.0000000000
     25694      8538  TIP3      H1            -11.8633803985       15.3661342534       19.8734953365  SOLV      8527            0.0000000000
     25695      8538  TIP3      H2            -11.7551103985       16.4366842534       20.9384353365  SOLV      8527            0.0000000000
     25696      8539  TIP3      OH2           -18.1346003985       14.2761142534       22.6008753365  SOLV      8528            0.0000000000
     25697      8539  TIP3      H1            -17.9825603985       13.9281542534       23.4795253365  SOLV      8528            0.0000000000
     25698      8539  TIP3      H2            -18.9855603985       13.9198442534       22.3455953365  SOLV      8528            0.0000000000
     25699      8540  TIP3      OH2            -8.6863803985       14.6414342534       17.8222153365  SOLV      8529            0.0000000000
     25700      8540  TIP3      H1             -8.3115403985       13.8970442534       17.3514753365  SOLV      8529            0.0000000000
     25701      8540  TIP3      H2             -8.6820103985       14.3714942534       18.7405453365  SOLV      8529            0.0000000000
     25702      8541  TIP3      OH2            -9.0175703985       14.5671442534       20.5714353365  SOLV      8530            0.0000000000
     25703      8541  TIP3      H1             -9.9525903985       14.6673342534       20.7501353365  SOLV      8530            0.0000000000
     25704      8541  TIP3      H2             -8.7373803985       13.8577442534       21.1497553365  SOLV      8530            0.0000000000
     25705      8542  TIP3      OH2            -6.0289803985        3.6343742534       32.6179953365  SOLV      8531            0.0000000000
     25706      8542  TIP3      H1             -6.4363003985        4.1149342534       31.8973253365  SOLV      8531            0.0000000000
     25707      8542  TIP3      H2             -5.9884103985        2.7289742534       32.3100753365  SOLV      8531            0.0000000000
     25708      8543  TIP3      OH2           -18.8800303985       10.0183142534       30.6146653365  SOLV      8532            0.0000000000
     25709      8543  TIP3      H1            -18.6639003985        9.6568742534       31.4742453365  SOLV      8532            0.0000000000
     25710      8543  TIP3      H2            -19.7355603985        9.6436942534       30.4050153365  SOLV      8532            0.0000000000
     25711      8544  TIP3      OH2           -16.2612303985       -1.5116357466       26.6100853365  SOLV      8533            0.0000000000
     25712      8544  TIP3      H1            -17.1228603985       -1.5988157466       26.2023753365  SOLV      8533            0.0000000000
     25713      8544  TIP3      H2            -16.2836603985       -0.6556257466       27.0378453365  SOLV      8533            0.0000000000
     25714      8545  TIP3      OH2           -11.5984503985       -1.7895957466       29.9847853365  SOLV      8534            0.0000000000
     25715      8545  TIP3      H1            -11.1781403985       -2.2048857466       30.7378453365  SOLV      8534            0.0000000000
     25716      8545  TIP3      H2            -12.5314903985       -1.9682657466       30.1019853365  SOLV      8534            0.0000000000
     25717      8546  TIP3      OH2            -8.2719603985        1.9659242534       30.8382353365  SOLV      8535            0.0000000000
     25718      8546  TIP3      H1             -8.7860103985        1.8401442534       31.6358353365  SOLV      8535            0.0000000000
     25719      8546  TIP3      H2             -8.4274903985        2.8782342534       30.5938553365  SOLV      8535            0.0000000000
     25720      8547  TIP3      OH2            -7.5094703985        6.8269242534       16.5995353365  SOLV      8536            0.0000000000
     25721      8547  TIP3      H1             -7.4673903985        6.6043142534       15.6695353365  SOLV      8536            0.0000000000
     25722      8547  TIP3      H2             -6.6602603985        7.2256342534       16.7895253365  SOLV      8536            0.0000000000
     25723      8548  TIP3      OH2           -11.9367203985        0.7027442534       17.2698653365  SOLV      8537            0.0000000000
     25724      8548  TIP3      H1            -12.1902403985        0.7219042534       18.1926753365  SOLV      8537            0.0000000000
     25725      8548  TIP3      H2            -12.1935103985       -0.1687157466       16.9684853365  SOLV      8537            0.0000000000
     25726      8549  TIP3      OH2           -16.1702203985        3.4538142534       27.7051053365  SOLV      8538            0.0000000000
     25727      8549  TIP3      H1            -16.8120103985        3.4135442534       28.4141153365  SOLV      8538            0.0000000000
     25728      8549  TIP3      H2            -16.1330203985        4.3802842534       27.4674053365  SOLV      8538            0.0000000000
     25729      8550  TIP3      OH2           -16.1733103985        3.6748242534       22.6171053365  SOLV      8539            0.0000000000
     25730      8550  TIP3      H1            -17.0660203985        3.3344342534       22.5584853365  SOLV      8539            0.0000000000
     25731      8550  TIP3      H2            -15.7226503985        3.2979142534       21.8614253365  SOLV      8539            0.0000000000
     25732      8551  TIP3      OH2           -10.6377603985        4.0908542534       21.4341853365  SOLV      8540            0.0000000000
     25733      8551  TIP3      H1            -11.0467303985        4.9057142534       21.1426653365  SOLV      8540            0.0000000000
     25734      8551  TIP3      H2             -9.9171403985        3.9508642534       20.8198953365  SOLV      8540            0.0000000000
     25735      8552  TIP3      OH2           -11.5356003985        4.2664942534       32.9222553365  SOLV      8541            0.0000000000
     25736      8552  TIP3      H1            -12.0982203985        3.5616542534       33.2430353365  SOLV      8541            0.0000000000
     25737      8552  TIP3      H2            -10.7092603985        4.1456842534       33.3900153365  SOLV      8541            0.0000000000
     25738      8553  TIP3      OH2            -9.6329903985        3.5368942534       24.2481553365  SOLV      8542            0.0000000000
     25739      8553  TIP3      H1             -9.8285403985        4.1425742534       23.5332153365  SOLV      8542            0.0000000000
     25740      8553  TIP3      H2             -9.4517303985        2.7034142534       23.8137853365  SOLV      8542            0.0000000000
     25741      8554  TIP3      OH2           -18.4201703985        3.7741642534       29.5723053365  SOLV      8543            0.0000000000
     25742      8554  TIP3      H1            -18.4582303985        4.1743242534       30.4410153365  SOLV      8543            0.0000000000
     25743      8554  TIP3      H2            -18.9110603985        2.9574042534       29.6625953365  SOLV      8543            0.0000000000
     25744      8555  TIP3      OH2           -15.0544303985        1.1483942534       16.3709053365  SOLV      8544            0.0000000000
     25745      8555  TIP3      H1            -15.4853603985        0.7034042534       17.1006453365  SOLV      8544            0.0000000000
     25746      8555  TIP3      H2            -15.7725603985        1.5200242534       15.8586553365  SOLV      8544            0.0000000000
     25747      8556  TIP3      OH2           -21.8120903985        0.8903442534       23.4227753365  SOLV      8545            0.0000000000
     25748      8556  TIP3      H1            -21.1813203985        0.8615542534       24.1421653365  SOLV      8545            0.0000000000
     25749      8556  TIP3      H2            -21.3626603985        0.4652142534       22.6923653365  SOLV      8545            0.0000000000
     25750      8557  TIP3      OH2           -20.5378803985        1.6365442534       18.8468153365  SOLV      8546            0.0000000000
     25751      8557  TIP3      H1            -20.0637103985        2.2275342534       18.2619053365  SOLV      8546            0.0000000000
     25752      8557  TIP3      H2            -21.2552403985        2.1668342534       19.1938253365  SOLV      8546            0.0000000000
     25753      8558  TIP3      OH2           -10.3690703985        5.1750242534       28.9193953365  SOLV      8547            0.0000000000
     25754      8558  TIP3      H1            -10.0455903985        4.5439942534       28.2764453365  SOLV      8547            0.0000000000
     25755      8558  TIP3      H2            -10.8091403985        4.6402442534       29.5801353365  SOLV      8547            0.0000000000
     25756      8559  TIP3      OH2           -13.5917803985        1.1025742534       23.7035153365  SOLV      8548            0.0000000000
     25757      8559  TIP3      H1            -14.5026703985        1.1592542534       23.9921153365  SOLV      8548            0.0000000000
     25758      8559  TIP3      H2            -13.0864903985        1.0421242534       24.5142353365  SOLV      8548            0.0000000000
     25759      8560  TIP3      OH2           -18.7634403985        2.7312042534       22.5302753365  SOLV      8549            0.0000000000
     25760      8560  TIP3      H1            -19.6526403985        2.8307542534       22.1902353365  SOLV      8549            0.0000000000
     25761      8560  TIP3      H2            -18.4669503985        1.8895042534       22.1840653365  SOLV      8549            0.0000000000
     25762      8561  TIP3      OH2           -15.1102603985        2.7314642534       20.1867353365  SOLV      8550            0.0000000000
     25763      8561  TIP3      H1            -14.1787103985        2.8604642534       20.3650453365  SOLV      8550            0.0000000000
     25764      8561  TIP3      H2            -15.3252303985        3.4008942534       19.5372053365  SOLV      8550            0.0000000000
     25765      8562  TIP3      OH2            -9.1865903985        0.3372042534       26.9676953365  SOLV      8551            0.0000000000
     25766      8562  TIP3      H1             -9.8634303985        0.4685142534       27.6316653365  SOLV      8551            0.0000000000
     25767      8562  TIP3      H2             -9.6721003985        0.1821542534       26.1574653365  SOLV      8551            0.0000000000
     25768      8563  TIP3      OH2           -16.4362403985        3.9256842534       17.7533453365  SOLV      8552            0.0000000000
     25769      8563  TIP3      H1            -16.9787303985        3.5460642534       17.0621053365  SOLV      8552            0.0000000000
     25770      8563  TIP3      H2            -15.6027503985        4.1201542534       17.3247553365  SOLV      8552            0.0000000000
     25771      8564  TIP3      OH2            -5.8990803985       16.0087442534       33.2444553365  SOLV      8553            0.0000000000
     25772      8564  TIP3      H1             -5.6992103985       16.4329342534       32.4099853365  SOLV      8553            0.0000000000
     25773      8564  TIP3      H2             -5.2437103985       16.3525642534       33.8514953365  SOLV      8553            0.0000000000
     25774      8565  TIP3      OH2           -18.3011003985        8.4828742534       32.8525053365  SOLV      8554            0.0000000000
     25775      8565  TIP3      H1            -17.5688603985        8.7374642534       33.4139553365  SOLV      8554            0.0000000000
     25776      8565  TIP3      H2            -19.0812303985        8.6874142534       33.3680453365  SOLV      8554            0.0000000000
     25777      8566  TIP3      OH2           -12.2718103985        3.8898742534       25.5904753365  SOLV      8555            0.0000000000
     25778      8566  TIP3      H1            -11.7074703985        3.3435342534       25.0434353365  SOLV      8555            0.0000000000
     25779      8566  TIP3      H2            -12.4194703985        3.3680642534       26.3792353365  SOLV      8555            0.0000000000
     25780      8567  TIP3      OH2           -17.2698403985        0.0264842534       22.0089553365  SOLV      8556            0.0000000000
     25781      8567  TIP3      H1            -17.5868903985       -0.8759857466       21.9734953365  SOLV      8556            0.0000000000
     25782      8567  TIP3      H2            -16.4884303985        0.0282242534       21.4561153365  SOLV      8556            0.0000000000
     25783      8568  TIP3      OH2           -13.6452203985        2.2784842534       28.0045153365  SOLV      8557            0.0000000000
     25784      8568  TIP3      H1            -14.4806903985        2.7324342534       28.1147553365  SOLV      8557            0.0000000000
     25785      8568  TIP3      H2            -13.1211603985        2.5543342534       28.7565053365  SOLV      8557            0.0000000000
     25786      8569  TIP3      OH2           -13.1009603985        8.4912542534       19.6891553365  SOLV      8558            0.0000000000
     25787      8569  TIP3      H1            -13.8458603985        7.9837842534       19.3669453365  SOLV      8558            0.0000000000
     25788      8569  TIP3      H2            -13.2352403985        8.5400542534       20.6356353365  SOLV      8558            0.0000000000
     25789      8570  TIP3      OH2            -5.9510703985        7.6240742534       28.4759153365  SOLV      8559            0.0000000000
     25790      8570  TIP3      H1             -5.3091903985        8.0807042534       27.9321353365  SOLV      8559            0.0000000000
     25791      8570  TIP3      H2             -6.7813803985        7.7373142534       28.0133253365  SOLV      8559            0.0000000000
     25792      8571  TIP3      OH2            -9.2032803985        1.3052442534       17.8884153365  SOLV      8560            0.0000000000
     25793      8571  TIP3      H1            -10.1418603985        1.4168042534       17.7372953365  SOLV      8560            0.0000000000
     25794      8571  TIP3      H2             -8.9060703985        2.1619342534       18.1949853365  SOLV      8560            0.0000000000
     25795      8572  TIP3      OH2           -11.5817503985        8.6755842534       30.9260653365  SOLV      8561            0.0000000000
     25796      8572  TIP3      H1            -11.9271403985        8.2938242534       31.7330253365  SOLV      8561            0.0000000000
     25797      8572  TIP3      H2            -11.7817403985        9.6089442534       30.9973553365  SOLV      8561            0.0000000000
     25798      8573  TIP3      OH2            -8.4849303985        3.1725142534       19.5491553365  SOLV      8562            0.0000000000
     25799      8573  TIP3      H1             -7.5930303985        3.0350142534       19.8682753365  SOLV      8562            0.0000000000
     25800      8573  TIP3      H2             -8.4285703985        3.9631242534       19.0125053365  SOLV      8562            0.0000000000
     25801      8574  TIP3      OH2           -17.9761303985        7.7862542534       25.4589453365  SOLV      8563            0.0000000000
     25802      8574  TIP3      H1            -17.2314103985        7.7838242534       24.8575953365  SOLV      8563            0.0000000000
     25803      8574  TIP3      H2            -17.8984703985        6.9626342534       25.9404553365  SOLV      8563            0.0000000000
     25804      8575  TIP3      OH2           -10.9755503985        9.9496842534       18.7146153365  SOLV      8564            0.0000000000
     25805      8575  TIP3      H1            -11.2707103985       10.7764742534       19.0960953365  SOLV      8564            0.0000000000
     25806      8575  TIP3      H2            -11.6785503985        9.3303742534       18.9107553365  SOLV      8564            0.0000000000
     25807      8576  TIP3      OH2           -20.9681603985        6.2469442534       30.7737953365  SOLV      8565            0.0000000000
     25808      8576  TIP3      H1            -20.7453003985        5.8289042534       31.6055453365  SOLV      8565            0.0000000000
     25809      8576  TIP3      H2            -21.5701503985        5.6344442534       30.3510753365  SOLV      8565            0.0000000000
     25810      8577  TIP3      OH2           -13.9516703985        5.7639342534       32.9867653365  SOLV      8566            0.0000000000
     25811      8577  TIP3      H1            -14.2475903985        5.5982342534       32.0916753365  SOLV      8566            0.0000000000
     25812      8577  TIP3      H2            -13.0201503985        5.5439642534       32.9761553365  SOLV      8566            0.0000000000
     25813      8578  TIP3      OH2            -9.3313903985       11.1371342534       30.8765653365  SOLV      8567            0.0000000000
     25814      8578  TIP3      H1            -10.2319603985       11.3203942534       30.6089553365  SOLV      8567            0.0000000000
     25815      8578  TIP3      H2             -9.2972803985       11.3960642534       31.7974453365  SOLV      8567            0.0000000000
     25816      8579  TIP3      OH2            -3.6000603985        3.3819242534       19.2438253365  SOLV      8568            0.0000000000
     25817      8579  TIP3      H1             -4.1544303985        2.9857242534       18.5715753365  SOLV      8568            0.0000000000
     25818      8579  TIP3      H2             -3.4997003985        4.2924442534       18.9661553365  SOLV      8568            0.0000000000
     25819      8580  TIP3      OH2            -3.6368603985        9.1820942534       32.0809753365  SOLV      8569            0.0000000000
     25820      8580  TIP3      H1             -4.4880103985        9.4204742534       31.7136153365  SOLV      8569            0.0000000000
     25821      8580  TIP3      H2             -3.0465203985        9.1654142534       31.3276853365  SOLV      8569            0.0000000000
     25822      8581  TIP3      OH2            -5.3048903985       12.1679642534       19.7090353365  SOLV      8570            0.0000000000
     25823      8581  TIP3      H1             -5.6777803985       11.3423442534       20.0180953365  SOLV      8570            0.0000000000
     25824      8581  TIP3      H2             -5.0275403985       11.9849042534       18.8113753365  SOLV      8570            0.0000000000
     25825      8582  TIP3      OH2            -8.1445003985        6.9759142534       26.7302253365  SOLV      8571            0.0000000000
     25826      8582  TIP3      H1             -9.0728103985        6.7441042534       26.7031553365  SOLV      8571            0.0000000000
     25827      8582  TIP3      H2             -7.6933903985        6.1988942534       26.4001053365  SOLV      8571            0.0000000000
     25828      8583  TIP3      OH2           -15.6011903985       11.3040742534       22.8630953365  SOLV      8572            0.0000000000
     25829      8583  TIP3      H1            -15.0739703985       12.0775142534       22.6629753365  SOLV      8572            0.0000000000
     25830      8583  TIP3      H2            -16.4813403985       11.5289942534       22.5614953365  SOLV      8572            0.0000000000
     25831      8584  TIP3      OH2           -14.1739603985        8.9670642534       22.4395253365  SOLV      8573            0.0000000000
     25832      8584  TIP3      H1            -14.4149603985        9.8925042534       22.4810553365  SOLV      8573            0.0000000000
     25833      8584  TIP3      H2            -14.9146003985        8.5081942534       22.8359153365  SOLV      8573            0.0000000000
     25834      8585  TIP3      OH2           -13.6593003985       13.1164242534       28.7546353365  SOLV      8574            0.0000000000
     25835      8585  TIP3      H1            -13.2968303985       13.9709842534       28.5210753365  SOLV      8574            0.0000000000
     25836      8585  TIP3      H2            -13.1277803985       12.8245842534       29.4952653365  SOLV      8574            0.0000000000
     25837      8586  TIP3      OH2           -15.4908803985       13.9888242534       21.9847453365  SOLV      8575            0.0000000000
     25838      8586  TIP3      H1            -16.4408303985       14.0945642534       22.0360753365  SOLV      8575            0.0000000000
     25839      8586  TIP3      H2            -15.1390703985       14.8095642534       22.3294953365  SOLV      8575            0.0000000000
     25840      8587  TIP3      OH2           -10.1152203985        9.2154942534       28.4551953365  SOLV      8576            0.0000000000
     25841      8587  TIP3      H1            -10.5410903985        8.9876642534       29.2815953365  SOLV      8576            0.0000000000
     25842      8587  TIP3      H2             -9.5346403985        8.4766742534       28.2727253365  SOLV      8576            0.0000000000
     25843      8588  TIP3      OH2            -7.9123303985       10.1445442534       17.5290953365  SOLV      8577            0.0000000000
     25844      8588  TIP3      H1             -7.5590203985        9.7645242534       18.3334453365  SOLV      8577            0.0000000000
     25845      8588  TIP3      H2             -8.8609803985       10.0510242534       17.6160253365  SOLV      8577            0.0000000000
     25846      8589  TIP3      OH2            -7.4568003985       13.7674442534       30.9246753365  SOLV      8578            0.0000000000
     25847      8589  TIP3      H1             -8.0584803985       13.2117342534       30.4293053365  SOLV      8578            0.0000000000
     25848      8589  TIP3      H2             -7.1754303985       14.4344242534       30.2984153365  SOLV      8578            0.0000000000
     25849      8590  TIP3      OH2            -3.4088903985       14.6237942534       17.7301153365  SOLV      8579            0.0000000000
     25850      8590  TIP3      H1             -2.6651003985       15.2098442534       17.5902753365  SOLV      8579            0.0000000000
     25851      8590  TIP3      H2             -4.1030803985       15.1923742534       18.0633553365  SOLV      8579            0.0000000000
     25852      8591  TIP3      OH2           -19.3342103985        1.0002142534       30.3319353365  SOLV      8580            0.0000000000
     25853      8591  TIP3      H1            -20.2269803985        1.3387542534       30.2643353365  SOLV      8580            0.0000000000
     25854      8591  TIP3      H2            -19.4329303985        0.1448242534       30.7500153365  SOLV      8580            0.0000000000
     25855      8592  TIP3      OH2            -7.0464003985        8.8167442534       19.7558853365  SOLV      8581            0.0000000000
     25856      8592  TIP3      H1             -7.3236403985        8.0886742534       20.3119953365  SOLV      8581            0.0000000000
     25857      8592  TIP3      H2             -6.1191003985        8.9359442534       19.9611453365  SOLV      8581            0.0000000000
     25858      8593  TIP3      OH2           -19.6830103985       12.8046542534       28.7668753365  SOLV      8582            0.0000000000
     25859      8593  TIP3      H1            -19.4659803985       11.8728942534       28.7358453365  SOLV      8582            0.0000000000
     25860      8593  TIP3      H2            -19.4366603985       13.0791542534       29.6501553365  SOLV      8582            0.0000000000
     25861      8594  TIP3      OH2           -13.8215503985       11.2561542534       15.9760953365  SOLV      8583            0.0000000000
     25862      8594  TIP3      H1            -13.5825703985       10.5079642534       15.4289853365  SOLV      8583            0.0000000000
     25863      8594  TIP3      H2            -14.0904203985       10.8683242534       16.8088753365  SOLV      8583            0.0000000000
     25864      8595  TIP3      OH2           -14.8844903985       10.8265342534       18.4323553365  SOLV      8584            0.0000000000
     25865      8595  TIP3      H1            -14.7376903985       10.3065142534       19.2224453365  SOLV      8584            0.0000000000
     25866      8595  TIP3      H2            -14.8873203985       11.7332942534       18.7389453365  SOLV      8584            0.0000000000
     25867      8596  TIP3      OH2           -18.4313803985        8.0788642534       18.9428953365  SOLV      8585            0.0000000000
     25868      8596  TIP3      H1            -19.1174503985        8.4311142534       19.5098653365  SOLV      8585            0.0000000000
     25869      8596  TIP3      H2            -17.9085903985        8.8418242534       18.6963253365  SOLV      8585            0.0000000000
     25870      8597  TIP3      OH2           -10.5998703985        0.7412442534       29.2217953365  SOLV      8586            0.0000000000
     25871      8597  TIP3      H1             -9.9010803985        0.8151142534       29.8717653365  SOLV      8586            0.0000000000
     25872      8597  TIP3      H2            -10.9807303985       -0.1232557466       29.3760853365  SOLV      8586            0.0000000000
     25873      8598  TIP3      OH2            -9.8153803985        0.3934142534       20.3190253365  SOLV      8587            0.0000000000
     25874      8598  TIP3      H1             -9.5955503985        0.8649542534       19.5155653365  SOLV      8587            0.0000000000
     25875      8598  TIP3      H2             -9.2569803985        0.7876742534       20.9890853365  SOLV      8587            0.0000000000
     25876      8599  TIP3      OH2           -12.1467703985       12.5238942534       19.1817753365  SOLV      8588            0.0000000000
     25877      8599  TIP3      H1            -12.9631603985       13.0208642534       19.2342053365  SOLV      8588            0.0000000000
     25878      8599  TIP3      H2            -11.6171403985       12.9992442534       18.5416553365  SOLV      8588            0.0000000000
     25879      8600  TIP3      OH2           -12.6153903985        2.1212942534       21.1538653365  SOLV      8589            0.0000000000
     25880      8600  TIP3      H1            -11.8031303985        2.6256142534       21.2000353365  SOLV      8589            0.0000000000
     25881      8600  TIP3      H2            -12.8600903985        1.9762642534       22.0678253365  SOLV      8589            0.0000000000
     25882      8601  TIP3      OH2           -12.0797503985        3.1075642534       30.3385253365  SOLV      8590            0.0000000000
     25883      8601  TIP3      H1            -11.9607203985        3.6811042534       31.0955653365  SOLV      8590            0.0000000000
     25884      8601  TIP3      H2            -11.4242903985        2.4195042534       30.4533053365  SOLV      8590            0.0000000000
     25885      8602  TIP3      OH2           -11.7317203985       -0.7974057466       22.0919753365  SOLV      8591            0.0000000000
     25886      8602  TIP3      H1            -12.0783703985       -0.1803457466       22.7364053365  SOLV      8591            0.0000000000
     25887      8602  TIP3      H2            -11.0730303985       -0.2968357466       21.6105253365  SOLV      8591            0.0000000000
     25888      8603  TIP3      OH2           -14.8084603985       13.5676142534       19.1634653365  SOLV      8592            0.0000000000
     25889      8603  TIP3      H1            -14.6475903985       14.3673642534       18.6627253365  SOLV      8592            0.0000000000
     25890      8603  TIP3      H2            -15.0056803985       13.8742142534       20.0485253365  SOLV      8592            0.0000000000
     25891      8604  TIP3      OH2           -16.0740203985        0.2655342534       18.7792253365  SOLV      8593            0.0000000000
     25892      8604  TIP3      H1            -16.1575403985        1.1538442534       19.1258653365  SOLV      8593            0.0000000000
     25893      8604  TIP3      H2            -15.1839903985        0.0002042534       19.0109053365  SOLV      8593            0.0000000000
     25894      8605  TIP3      OH2            -5.8751703985        1.0145942534       31.1734953365  SOLV      8594            0.0000000000
     25895      8605  TIP3      H1             -6.7915903985        1.2767642534       31.0858653365  SOLV      8594            0.0000000000
     25896      8605  TIP3      H2             -5.5396703985        1.0114942534       30.2770253365  SOLV      8594            0.0000000000
     25897      8606  TIP3      OH2            -7.2730703985        4.7646942534       25.2692253365  SOLV      8595            0.0000000000
     25898      8606  TIP3      H1             -8.0706303985        4.3497142534       24.9407253365  SOLV      8595            0.0000000000
     25899      8606  TIP3      H2             -6.8279603985        4.0740642534       25.7602753365  SOLV      8595            0.0000000000
     25900      8607  TIP3      OH2           -17.8154903985       10.6927542534       17.8396753365  SOLV      8596            0.0000000000
     25901      8607  TIP3      H1            -17.2233403985       11.3922342534       18.1159153365  SOLV      8596            0.0000000000
     25902      8607  TIP3      H2            -17.3561903985       10.2597042534       17.1201353365  SOLV      8596            0.0000000000
     25903      8608  TIP3      OH2           -19.4995703985        3.3570542534       16.9556153365  SOLV      8597            0.0000000000
     25904      8608  TIP3      H1            -19.5443103985        4.2963642534       17.1343153365  SOLV      8597            0.0000000000
     25905      8608  TIP3      H2            -20.3872503985        3.1215442534       16.6858253365  SOLV      8597            0.0000000000
     25906      8609  TIP3      OH2            -6.1866103985       14.0209442534       26.8915753365  SOLV      8598            0.0000000000
     25907      8609  TIP3      H1             -6.3421803985       14.6993842534       26.2345053365  SOLV      8598            0.0000000000
     25908      8609  TIP3      H2             -5.2539703985       14.0928742534       27.0946353365  SOLV      8598            0.0000000000
     25909      8610  TIP3      OH2           -18.6913703985       -1.8612857466       25.6287153365  SOLV      8599            0.0000000000
     25910      8610  TIP3      H1            -18.9203903985       -1.8020357466       24.7012153365  SOLV      8599            0.0000000000
     25911      8610  TIP3      H2            -19.1340303985       -2.6527357466       25.9351253365  SOLV      8599            0.0000000000
     25912      8611  TIP3      OH2           -19.7610403985       12.0794242534       21.7892953365  SOLV      8600            0.0000000000
     25913      8611  TIP3      H1            -20.5931803985       12.5516942534       21.8164353365  SOLV      8600            0.0000000000
     25914      8611  TIP3      H2            -19.2152103985       12.5891842534       21.1906053365  SOLV      8600            0.0000000000
     25915      8612  TIP3      OH2           -20.4726703985       14.6917942534       33.1190953365  SOLV      8601            0.0000000000
     25916      8612  TIP3      H1            -19.9324503985       14.4751942534       33.8790153365  SOLV      8601            0.0000000000
     25917      8612  TIP3      H2            -20.9538703985       13.8863942534       32.9293453365  SOLV      8601            0.0000000000
     25918      8613  TIP3      OH2           -15.8753303985       13.6112342534       34.7395153365  SOLV      8602            0.0000000000
     25919      8613  TIP3      H1            -15.1076103985       13.1523142534       35.0804353365  SOLV      8602            0.0000000000
     25920      8613  TIP3      H2            -15.8967103985       13.3852142534       33.8096353365  SOLV      8602            0.0000000000
     25921      8614  TIP3      OH2           -11.7833703985       13.1192942534       16.1146953365  SOLV      8603            0.0000000000
     25922      8614  TIP3      H1            -12.4272703985       12.4881542534       16.4360653365  SOLV      8603            0.0000000000
     25923      8614  TIP3      H2            -11.0215403985       12.5880942534       15.8830453365  SOLV      8603            0.0000000000
     25924      8615  TIP3      OH2            -9.2984603985       11.9913442534       33.4686653365  SOLV      8604            0.0000000000
     25925      8615  TIP3      H1             -9.6495103985       11.1346442534       33.7117053365  SOLV      8604            0.0000000000
     25926      8615  TIP3      H2             -8.5721403985       12.1340142534       34.0755653365  SOLV      8604            0.0000000000
     25927      8616  TIP3      OH2            -7.1790803985       12.9362842534       16.3484953365  SOLV      8605            0.0000000000
     25928      8616  TIP3      H1             -6.8960403985       12.1418042534       16.8011853365  SOLV      8605            0.0000000000
     25929      8616  TIP3      H2             -6.4392903985       13.1693842534       15.7876053365  SOLV      8605            0.0000000000
     25930      8617  TIP3      OH2           -20.5657203985        8.5022042534       34.0735253365  SOLV      8606            0.0000000000
     25931      8617  TIP3      H1            -20.4216703985        7.6002742534       33.7871953365  SOLV      8606            0.0000000000
     25932      8617  TIP3      H2            -21.3379803985        8.7884142534       33.5857553365  SOLV      8606            0.0000000000
     25933      8618  TIP3      OH2           -16.2243503985        8.8457742534       16.2059853365  SOLV      8607            0.0000000000
     25934      8618  TIP3      H1            -16.1599403985        8.0517342534       16.7366253365  SOLV      8607            0.0000000000
     25935      8618  TIP3      H2            -15.5714303985        8.7270542534       15.5161853365  SOLV      8607            0.0000000000
     25936      8619  TIP3      OH2           -13.9101103985        8.4720142534       33.5061653365  SOLV      8608            0.0000000000
     25937      8619  TIP3      H1            -14.2387303985        8.7428242534       32.6489053365  SOLV      8608            0.0000000000
     25938      8619  TIP3      H2            -13.7582903985        7.5309942534       33.4186653365  SOLV      8608            0.0000000000
     25939      8620  TIP3      OH2           -10.8720103985        9.8929442534       15.9417853365  SOLV      8609            0.0000000000
     25940      8620  TIP3      H1            -11.1406003985       10.0731542534       16.8426753365  SOLV      8609            0.0000000000
     25941      8620  TIP3      H2            -11.0784503985        8.9675642534       15.8103653365  SOLV      8609            0.0000000000
     25942      8621  TIP3      OH2            -8.1755903985        8.3877442534       30.8893953365  SOLV      8610            0.0000000000
     25943      8621  TIP3      H1             -7.4301103985        8.9761142534       30.7697953365  SOLV      8610            0.0000000000
     25944      8621  TIP3      H2             -8.9329103985        8.9697142534       30.9527053365  SOLV      8610            0.0000000000
     25945      8622  TIP3      OH2           -19.7330703985        5.7025342534       33.4934553365  SOLV      8611            0.0000000000
     25946      8622  TIP3      H1            -19.3249503985        4.8451942534       33.3725153365  SOLV      8611            0.0000000000
     25947      8622  TIP3      H2            -19.9933103985        5.7166642534       34.4144853365  SOLV      8611            0.0000000000
     25948      8623  TIP3      OH2           -15.0749703985        6.8183942534       18.5117853365  SOLV      8612            0.0000000000
     25949      8623  TIP3      H1            -15.5347703985        6.3342242534       19.1976353365  SOLV      8612            0.0000000000
     25950      8623  TIP3      H2            -14.8201003985        6.1499342534       17.8758353365  SOLV      8612            0.0000000000
     25951      8624  TIP3      OH2           -15.7860403985        4.7111042534       30.8677453365  SOLV      8613            0.0000000000
     25952      8624  TIP3      H1            -16.4044303985        5.3857642534       31.1482153365  SOLV      8613            0.0000000000
     25953      8624  TIP3      H2            -15.4419203985        5.0324942534       30.0343653365  SOLV      8613            0.0000000000
     25954      8625  TIP3      OH2           -14.0039303985        5.0615742534       16.7741053365  SOLV      8614            0.0000000000
     25955      8625  TIP3      H1            -14.1844303985        4.9066942534       15.8469353365  SOLV      8614            0.0000000000
     25956      8625  TIP3      H2            -13.0538803985        5.1694442534       16.8188953365  SOLV      8614            0.0000000000
     25957      8626  TIP3      OH2           -10.7662203985        7.1826342534       34.1452253365  SOLV      8615            0.0000000000
     25958      8626  TIP3      H1             -9.8131003985        7.2665442534       34.1178253365  SOLV      8615            0.0000000000
     25959      8626  TIP3      H2            -10.9267603985        6.4708142534       34.7647153365  SOLV      8615            0.0000000000
     25960      8627  TIP3      OH2            -4.6141003985        7.4159942534       16.2199153365  SOLV      8616            0.0000000000
     25961      8627  TIP3      H1             -4.8876203985        6.9915442534       15.4067453365  SOLV      8616            0.0000000000
     25962      8627  TIP3      H2             -4.5746903985        8.3474442534       16.0029553365  SOLV      8616            0.0000000000
     25963      8628  TIP3      OH2           -15.4466703985        2.0661842534       31.9500553365  SOLV      8617            0.0000000000
     25964      8628  TIP3      H1            -15.2965803985        1.3373142534       31.3480253365  SOLV      8617            0.0000000000
     25965      8628  TIP3      H2            -15.4444303985        2.8433542534       31.3912753365  SOLV      8617            0.0000000000
     25966      8629  TIP3      OH2           -15.0341003985        0.4357642534       29.4427953365  SOLV      8618            0.0000000000
     25967      8629  TIP3      H1            -14.4983503985        0.8874342534       28.7907253365  SOLV      8618            0.0000000000
     25968      8629  TIP3      H2            -15.8861403985        0.3277442534       29.0202053365  SOLV      8618            0.0000000000
     25969      8630  TIP3      OH2           -13.4522603985        5.8753842534       29.6823153365  SOLV      8619            0.0000000000
     25970      8630  TIP3      H1            -12.7017803985        5.7191342534       29.1090953365  SOLV      8619            0.0000000000
     25971      8630  TIP3      H2            -13.7914303985        6.7270442534       29.4068653365  SOLV      8619            0.0000000000
     25972      8631  TIP3      OH2            -9.0366403985        3.6905642534       34.7108453365  SOLV      8620            0.0000000000
     25973      8631  TIP3      H1             -8.8445103985        2.7595042534       34.5992953365  SOLV      8620            0.0000000000
     25974      8631  TIP3      H2             -8.1790103985        4.1155142534       34.7003853365  SOLV      8620            0.0000000000
     25975      8632  TIP3      OH2            -7.7199203985        6.4790842534       32.7881153365  SOLV      8621            0.0000000000
     25976      8632  TIP3      H1             -8.0014203985        7.1885442534       32.2104953365  SOLV      8621            0.0000000000
     25977      8632  TIP3      H2             -6.7774903985        6.4063842534       32.6372353365  SOLV      8621            0.0000000000
     25978      8633  TIP3      OH2           -16.9680403985        3.2645342534       33.8616153365  SOLV      8622            0.0000000000
     25979      8633  TIP3      H1            -17.7351403985        2.7320142534       33.6513753365  SOLV      8622            0.0000000000
     25980      8633  TIP3      H2            -16.2891403985        2.9545742534       33.2622453365  SOLV      8622            0.0000000000
     25981      8634  TIP3      OH2           -14.2285503985       -2.1076657466       29.8741553365  SOLV      8623            0.0000000000
     25982      8634  TIP3      H1            -14.3265903985       -1.1613457466       29.7687753365  SOLV      8623            0.0000000000
     25983      8634  TIP3      H2            -14.9709303985       -2.4802857466       29.3985053365  SOLV      8623            0.0000000000
     25984      8635  TIP3      OH2           -12.9645003985        2.2138742534       33.4379953365  SOLV      8624            0.0000000000
     25985      8635  TIP3      H1            -13.1999603985        1.9945442534       34.3394853365  SOLV      8624            0.0000000000
     25986      8635  TIP3      H2            -13.7478103985        2.0069942534       32.9282453365  SOLV      8624            0.0000000000
     25987      8636  TIP3      OH2           -10.2488403985        1.3412242534       32.5133453365  SOLV      8625            0.0000000000
     25988      8636  TIP3      H1            -11.1963003985        1.3731942534       32.6456753365  SOLV      8625            0.0000000000
     25989      8636  TIP3      H2             -9.9361703985        0.7159342534       33.1671653365  SOLV      8625            0.0000000000
     25990      8637  TIP3      OH2            -8.6146903985       -0.0246657466       34.5185353365  SOLV      8626            0.0000000000
     25991      8637  TIP3      H1             -8.7115103985       -0.9769357466       34.5127253365  SOLV      8626            0.0000000000
     25992      8637  TIP3      H2             -8.9363803985        0.2440142534       35.3790853365  SOLV      8626            0.0000000000
     25993      8638  TIP3      OH2           -18.7877603985        1.1849142534       33.5660853365  SOLV      8627            0.0000000000
     25994      8638  TIP3      H1            -18.5760203985        0.4785242534       32.9558353365  SOLV      8627            0.0000000000
     25995      8638  TIP3      H2            -18.8990103985        0.7475142534       34.4102053365  SOLV      8627            0.0000000000
     25996      8639  TIP3      OH2           -14.0067403985       -2.8139257466       32.5454353365  SOLV      8628            0.0000000000
     25997      8639  TIP3      H1            -13.2949003985       -3.4537057466       32.5313453365  SOLV      8628            0.0000000000
     25998      8639  TIP3      H2            -14.1077003985       -2.5470957466       31.6317453365  SOLV      8628            0.0000000000
     25999      8640  TIP3      OH2           -13.6529903985       -1.1310857466       34.5990653365  SOLV      8629            0.0000000000
     26000      8640  TIP3      H1            -13.7847703985       -1.6067057466       33.7789153365  SOLV      8629            0.0000000000
     26001      8640  TIP3      H2            -14.2522503985       -0.3867257466       34.5437753365  SOLV      8629            0.0000000000
     26002      8641  TIP3      OH2           -14.1067603985       15.7519442534       17.7754653365  SOLV      8630            0.0000000000
     26003      8641  TIP3      H1            -13.1736903985       15.9098142534       17.9193053365  SOLV      8630            0.0000000000
     26004      8641  TIP3      H2            -14.3708803985       16.4272442534       17.1506153365  SOLV      8630            0.0000000000
     26005      8642  TIP3      OH2           -20.5382703985       10.3883242534       17.2582753365  SOLV      8631            0.0000000000
     26006      8642  TIP3      H1            -19.6243503985       10.4672142534       17.5316653365  SOLV      8631            0.0000000000
     26007      8642  TIP3      H2            -20.5309603985        9.7012842534       16.5918353365  SOLV      8631            0.0000000000
     26008      8643  TIP3      OH2           -21.8892103985       15.7811742534       22.3356653365  SOLV      8632            0.0000000000
     26009      8643  TIP3      H1            -22.5365003985       15.3193442534       21.8027853365  SOLV      8632            0.0000000000
     26010      8643  TIP3      H2            -21.5347503985       15.1095042534       22.9182853365  SOLV      8632            0.0000000000
     26011      8644  TIP3      OH2           -21.0192903985       13.8618742534       24.1402853365  SOLV      8633            0.0000000000
     26012      8644  TIP3      H1            -21.3536103985       12.9816042534       24.3123053365  SOLV      8633            0.0000000000
     26013      8644  TIP3      H2            -20.7970503985       14.2073742534       25.0048453365  SOLV      8633            0.0000000000
     26014      8645  TIP3      OH2            -3.4708103985       14.6715142534       27.1207653365  SOLV      8634            0.0000000000
     26015      8645  TIP3      H1             -3.4921403985       14.8563542534       28.0597053365  SOLV      8634            0.0000000000
     26016      8645  TIP3      H2             -2.7801903985       15.2399142534       26.7799053365  SOLV      8634            0.0000000000
     26017      8646  TIP3      OH2            -3.9075203985       14.2386242534       30.0426753365  SOLV      8635            0.0000000000
     26018      8646  TIP3      H1             -4.3946503985       13.5030342534       29.6714153365  SOLV      8635            0.0000000000
     26019      8646  TIP3      H2             -3.3582503985       13.8450142534       30.7206153365  SOLV      8635            0.0000000000
     26020      8647  TIP3      OH2            -5.4567903985       10.0284342534       34.6807053365  SOLV      8636            0.0000000000
     26021      8647  TIP3      H1             -6.3226803985        9.9234042534       35.0749353365  SOLV      8636            0.0000000000
     26022      8647  TIP3      H2             -5.0802003985       10.7867642534       35.1271753365  SOLV      8636            0.0000000000
     26023      8648  TIP3      OH2            -4.1558203985        8.2848042534       20.1949553365  SOLV      8637            0.0000000000
     26024      8648  TIP3      H1             -3.3056803985        8.7058942534       20.3221153365  SOLV      8637            0.0000000000
     26025      8648  TIP3      H2             -4.1503103985        7.5448142534       20.8020953365  SOLV      8637            0.0000000000
     26026      8649  TIP3      OH2            -3.7612603985        6.3385442534       22.0185253365  SOLV      8638            0.0000000000
     26027      8649  TIP3      H1             -4.4878003985        5.8588042534       22.4162853365  SOLV      8638            0.0000000000
     26028      8649  TIP3      H2             -3.1799303985        6.5440142534       22.7506853365  SOLV      8638            0.0000000000
     26029      8650  TIP3      OH2            -4.0021403985        9.1232942534       26.9662853365  SOLV      8639            0.0000000000
     26030      8650  TIP3      H1             -3.1687203985        8.7452942534       26.6856453365  SOLV      8639            0.0000000000
     26031      8650  TIP3      H2             -3.8901103985       10.0664142534       26.8471953365  SOLV      8639            0.0000000000
     26032      8651  TIP3      OH2            -5.5159103985       12.0010442534       29.2731253365  SOLV      8640            0.0000000000
     26033      8651  TIP3      H1             -6.1633803985       12.3261942534       29.8986453365  SOLV      8640            0.0000000000
     26034      8651  TIP3      H2             -6.0335103985       11.5608142534       28.5989553365  SOLV      8640            0.0000000000
     26035      8652  TIP3      OH2            -3.4929503985        6.2393942534       18.4096553365  SOLV      8641            0.0000000000
     26036      8652  TIP3      H1             -4.0148403985        6.5958042534       17.6907453365  SOLV      8641            0.0000000000
     26037      8652  TIP3      H2             -3.5260303985        6.9141742534       19.0877453365  SOLV      8641            0.0000000000
     26038      8653  TIP3      OH2            -5.1440503985        3.4789542534       16.9603653365  SOLV      8642            0.0000000000
     26039      8653  TIP3      H1             -5.0476103985        4.1456542534       16.2803353365  SOLV      8642            0.0000000000
     26040      8653  TIP3      H2             -5.2840903985        2.6635842534       16.4789153365  SOLV      8642            0.0000000000
     26041      8654  TIP3      OH2            -5.9745803985        4.8591942534       22.5813953365  SOLV      8643            0.0000000000
     26042      8654  TIP3      H1             -6.1247003985        3.9140542534       22.5611753365  SOLV      8643            0.0000000000
     26043      8654  TIP3      H2             -6.3281303985        5.1403342534       23.4253053365  SOLV      8643            0.0000000000
     26044      8655  TIP3      OH2           -20.9393403985        6.9374142534       26.5917753365  SOLV      8644            0.0000000000
     26045      8655  TIP3      H1            -20.7550503985        6.8555842534       25.6560653365  SOLV      8644            0.0000000000
     26046      8655  TIP3      H2            -20.0900503985        6.8131142534       27.0154153365  SOLV      8644            0.0000000000
     26047      8656  TIP3      OH2            -5.1182903985        6.8295242534       32.2202253365  SOLV      8645            0.0000000000
     26048      8656  TIP3      H1             -4.5355603985        6.0947542534       32.4119453365  SOLV      8645            0.0000000000
     26049      8656  TIP3      H2             -4.5543603985        7.6015542534       32.2668053365  SOLV      8645            0.0000000000
     26050      8657  TIP3      OH2            -3.6215803985        4.7321042534       32.9047653365  SOLV      8646            0.0000000000
     26051      8657  TIP3      H1             -4.4849103985        4.3533142534       32.7392353365  SOLV      8646            0.0000000000
     26052      8657  TIP3      H2             -3.0172103985        3.9935842534       32.8303453365  SOLV      8646            0.0000000000
     26053      8658  TIP3      OH2            -5.8966703985        0.8869342534       16.0779153365  SOLV      8647            0.0000000000
     26054      8658  TIP3      H1             -5.2860903985        0.5156142534       16.7147353365  SOLV      8647            0.0000000000
     26055      8658  TIP3      H2             -6.7335203985        0.4656242534       16.2739153365  SOLV      8647            0.0000000000
     26056      8659  TIP3      OH2            -6.2641003985        2.4417742534       21.0439053365  SOLV      8648            0.0000000000
     26057      8659  TIP3      H1             -5.9843903985        1.5348142534       21.1680753365  SOLV      8648            0.0000000000
     26058      8659  TIP3      H2             -5.5049303985        2.8759242534       20.6548253365  SOLV      8648            0.0000000000
     26059      8660  TIP3      OH2            -5.6522703985        3.0235142534       26.4797953365  SOLV      8649            0.0000000000
     26060      8660  TIP3      H1             -4.7194703985        3.2355042534       26.4453953365  SOLV      8649            0.0000000000
     26061      8660  TIP3      H2             -5.8875203985        3.1247242534       27.4020953365  SOLV      8649            0.0000000000
     26062      8661  TIP3      OH2            -5.6230803985        3.7600442534       29.2557353365  SOLV      8650            0.0000000000
     26063      8661  TIP3      H1             -6.4659503985        4.0280842534       29.6217153365  SOLV      8650            0.0000000000
     26064      8661  TIP3      H2             -5.1806503985        4.5822342534       29.0448453365  SOLV      8650            0.0000000000
     26065      8662  TIP3      OH2           -21.3418603985        2.2079142534       32.7326553365  SOLV      8651            0.0000000000
     26066      8662  TIP3      H1            -20.4223703985        2.0857442534       32.9689653365  SOLV      8651            0.0000000000
     26067      8662  TIP3      H2            -21.7914103985        1.4578842534       33.1220053365  SOLV      8651            0.0000000000
     26068      8663  TIP3      OH2            -3.3399203985       -2.2599357466       34.6092353365  SOLV      8652            0.0000000000
     26069      8663  TIP3      H1             -2.9902203985       -2.9135857466       34.0037053365  SOLV      8652            0.0000000000
     26070      8663  TIP3      H2             -3.1929703985       -1.4225257466       34.1694953365  SOLV      8652            0.0000000000
     26071      8664  TIP3      OH2            -5.6506203985       -0.2952957466       21.0921053365  SOLV      8653            0.0000000000
     26072      8664  TIP3      H1             -5.4681203985       -0.7441457466       21.9176053365  SOLV      8653            0.0000000000
     26073      8664  TIP3      H2             -6.2503303985       -0.8798557466       20.6285653365  SOLV      8653            0.0000000000
     26074      8665  TIP3      OH2           -20.1206103985        0.5200742534       25.6239453365  SOLV      8654            0.0000000000
     26075      8665  TIP3      H1            -19.6754503985       -0.2716757466       25.9259153365  SOLV      8654            0.0000000000
     26076      8665  TIP3      H2            -19.6543103985        1.2365942534       26.0545053365  SOLV      8654            0.0000000000
     26077      8666  TIP3      OH2           -21.8165803985        3.5193742534       26.6929653365  SOLV      8655            0.0000000000
     26078      8666  TIP3      H1            -21.3246003985        3.2984242534       25.9021653365  SOLV      8655            0.0000000000
     26079      8666  TIP3      H2            -21.4544903985        4.3597142534       26.9739153365  SOLV      8655            0.0000000000
     26080      8667  TIP3      OH2            -3.8202003985       -0.1504757466       32.9583653365  SOLV      8656            0.0000000000
     26081      8667  TIP3      H1             -4.7376303985        0.1202342534       32.9227153365  SOLV      8656            0.0000000000
     26082      8667  TIP3      H2             -3.6972603985       -0.6856357466       32.1743353365  SOLV      8656            0.0000000000
     26083      8668  TIP3      OH2            -3.7840003985       -0.2274857466       17.6201353365  SOLV      8657            0.0000000000
     26084      8668  TIP3      H1             -3.3717403985       -0.9489157466       17.1449353365  SOLV      8657            0.0000000000
     26085      8668  TIP3      H2             -3.1023503985        0.4419742534       17.6785653365  SOLV      8657            0.0000000000
     26086      8669  TIP3      OH2           -21.5029303985       -0.2227157466       20.7472053365  SOLV      8658            0.0000000000
     26087      8669  TIP3      H1            -22.4280903985       -0.0140557466       20.6177553365  SOLV      8658            0.0000000000
     26088      8669  TIP3      H2            -21.0489403985        0.2613642534       20.0574353365  SOLV      8658            0.0000000000
     26089      8670  TIP3      OH2            -6.7322103985       14.7614542534       22.6929453365  SOLV      8659            0.0000000000
     26090      8670  TIP3      H1             -6.0799203985       14.4136642534       22.0848553365  SOLV      8659            0.0000000000
     26091      8670  TIP3      H2             -6.2218303985       15.2497742534       23.3389153365  SOLV      8659            0.0000000000
     26092      8671  TIP3      OH2           -21.5393903985       -1.4848157466       29.0914553365  SOLV      8660            0.0000000000
     26093      8671  TIP3      H1            -22.2043403985       -1.7307857466       29.7345453365  SOLV      8660            0.0000000000
     26094      8671  TIP3      H2            -21.9822603985       -0.8627757466       28.5142553365  SOLV      8660            0.0000000000
     26095      8672  TIP3      OH2           -19.3474603985       11.6905942534       33.2360353365  SOLV      8661            0.0000000000
     26096      8672  TIP3      H1            -20.1682103985       11.8652442534       32.7755053365  SOLV      8661            0.0000000000
     26097      8672  TIP3      H2            -19.5996803985       11.6170642534       34.1564753365  SOLV      8661            0.0000000000
     26098      8673  TIP3      OH2           -16.3931703985       12.6647142534       29.4944353365  SOLV      8662            0.0000000000
     26099      8673  TIP3      H1            -16.8180603985       13.4745642534       29.2118953365  SOLV      8662            0.0000000000
     26100      8673  TIP3      H2            -15.4888903985       12.7501242534       29.1924153365  SOLV      8662            0.0000000000
     26101      8674  TIP3      OH2           -12.0820303985       14.0637142534       32.4538053365  SOLV      8663            0.0000000000
     26102      8674  TIP3      H1            -11.8972803985       13.7303242534       33.3318353365  SOLV      8663            0.0000000000
     26103      8674  TIP3      H2            -11.2355803985       14.3735742534       32.1317253365  SOLV      8663            0.0000000000
     26104      8675  TIP3      OH2            -9.7369903985       15.3496042534       31.6979453365  SOLV      8664            0.0000000000
     26105      8675  TIP3      H1             -9.0601003985       14.7168342534       31.4578653365  SOLV      8664            0.0000000000
     26106      8675  TIP3      H2             -9.4151103985       15.7506542534       32.5052753365  SOLV      8664            0.0000000000
     26107      8676  TIP3      OH2            -4.8196103985       -2.0608457466       30.7774453365  SOLV      8665            0.0000000000
     26108      8676  TIP3      H1             -5.6322603985       -1.7358157466       30.3899153365  SOLV      8665            0.0000000000
     26109      8676  TIP3      H2             -4.5867603985       -2.8209957466       30.2443553365  SOLV      8665            0.0000000000
     26110      8677  TIP3      OH2           -18.9915003985       15.9211042534       29.5419653365  SOLV      8666            0.0000000000
     26111      8677  TIP3      H1            -19.7118603985       16.3612042534       29.0907353365  SOLV      8666            0.0000000000
     26112      8677  TIP3      H2            -19.3571003985       15.6705742534       30.3903653365  SOLV      8666            0.0000000000
     26113      8678  TIP3      OH2           -16.5242403985       15.5214942534       28.5716853365  SOLV      8667            0.0000000000
     26114      8678  TIP3      H1            -17.3890203985       15.5933442534       28.9756953365  SOLV      8667            0.0000000000
     26115      8678  TIP3      H2            -16.5793403985       16.0682242534       27.7879353365  SOLV      8667            0.0000000000
     26116      8679  TIP3      OH2           -11.8136803985       15.4093842534       27.7472853365  SOLV      8668            0.0000000000
     26117      8679  TIP3      H1            -12.2702803985       15.9383542534       27.0931253365  SOLV      8668            0.0000000000
     26118      8679  TIP3      H2            -11.6508803985       16.0125242534       28.4725153365  SOLV      8668            0.0000000000
     26119      8680  TIP3      OH2            -9.4860503985       14.2873442534       28.6923153365  SOLV      8669            0.0000000000
     26120      8680  TIP3      H1            -10.3906803985       14.4523642534       28.4265253365  SOLV      8669            0.0000000000
     26121      8680  TIP3      H2             -9.0571903985       15.1405642534       28.6266553365  SOLV      8669            0.0000000000
     26122      8681  TIP3      OH2            -6.8818603985       15.8572542534       28.9870953365  SOLV      8670            0.0000000000
     26123      8681  TIP3      H1             -7.0636603985       16.7731442534       28.7765853365  SOLV      8670            0.0000000000
     26124      8681  TIP3      H2             -6.7050803985       15.4469642534       28.1405553365  SOLV      8670            0.0000000000
     26125      8682  TIP3      OH2           -19.5766903985       14.5443542534       26.4521453365  SOLV      8671            0.0000000000
     26126      8682  TIP3      H1            -19.5950903985       14.1188642534       27.3093753365  SOLV      8671            0.0000000000
     26127      8682  TIP3      H2            -18.7719003985       14.2258542534       26.0433653365  SOLV      8671            0.0000000000
     26128      8683  TIP3      OH2           -17.4353803985       13.2542242534       25.1071353365  SOLV      8672            0.0000000000
     26129      8683  TIP3      H1            -17.6543103985       12.3379642534       25.2767353365  SOLV      8672            0.0000000000
     26130      8683  TIP3      H2            -16.6111603985       13.3942642534       25.5732753365  SOLV      8672            0.0000000000
     26131      8684  TIP3      OH2           -14.8981303985       13.7241542534       25.9559353365  SOLV      8673            0.0000000000
     26132      8684  TIP3      H1            -14.6855603985       12.8360542534       25.6690253365  SOLV      8673            0.0000000000
     26133      8684  TIP3      H2            -14.8336203985       13.6899242534       26.9103353365  SOLV      8673            0.0000000000
     26134      8685  TIP3      OH2           -11.3897603985       -0.6117857466       25.1002653365  SOLV      8674            0.0000000000
     26135      8685  TIP3      H1            -12.0640803985       -1.2412257466       25.3558453365  SOLV      8674            0.0000000000
     26136      8685  TIP3      H2            -10.8258403985       -1.0958957466       24.4970553365  SOLV      8674            0.0000000000
     26137      8686  TIP3      OH2            -6.2470403985       -2.5043857466       25.2129753365  SOLV      8675            0.0000000000
     26138      8686  TIP3      H1             -5.6432803985       -1.9568457466       24.7110753365  SOLV      8675            0.0000000000
     26139      8686  TIP3      H2             -7.1168403985       -2.1853457466       24.9723853365  SOLV      8675            0.0000000000
     26140      8687  TIP3      OH2            -4.5200003985       -1.3655157466       23.5460653365  SOLV      8676            0.0000000000
     26141      8687  TIP3      H1             -3.9082503985       -1.8799457466       23.0194253365  SOLV      8676            0.0000000000
     26142      8687  TIP3      H2             -4.1376603985       -0.4883057466       23.5695053365  SOLV      8676            0.0000000000
     26143      8688  TIP3      OH2           -19.0630103985       -1.9777557466       22.9222553365  SOLV      8677            0.0000000000
     26144      8688  TIP3      H1            -19.8400303985       -2.2122657466       22.4148453365  SOLV      8677            0.0000000000
     26145      8688  TIP3      H2            -18.5326503985       -2.7745457466       22.9310553365  SOLV      8677            0.0000000000
     26146      8689  TIP3      OH2           -20.2266703985       -2.1799457466       18.7258653365  SOLV      8678            0.0000000000
     26147      8689  TIP3      H1            -19.7876003985       -1.5688957466       18.1342153365  SOLV      8678            0.0000000000
     26148      8689  TIP3      H2            -20.8604303985       -1.6415357466       19.1998653365  SOLV      8678            0.0000000000
     26149      8690  TIP3      OH2           -14.4837503985       -2.0510457466       22.7355653365  SOLV      8679            0.0000000000
     26150      8690  TIP3      H1            -13.6094103985       -1.6626157466       22.7059953365  SOLV      8679            0.0000000000
     26151      8690  TIP3      H2            -14.6196703985       -2.2662657466       23.6582853365  SOLV      8679            0.0000000000
     26152      8691  TIP3      OH2            -8.9269103985       -2.0210657466       24.3847353365  SOLV      8680            0.0000000000
     26153      8691  TIP3      H1             -8.8507503985       -1.9259057466       23.4353353365  SOLV      8680            0.0000000000
     26154      8691  TIP3      H2             -9.2019903985       -2.9287757466       24.5136453365  SOLV      8680            0.0000000000
     26155      8692  TIP3      OH2            -7.5736503985       -1.9952857466       20.0772353365  SOLV      8681            0.0000000000
     26156      8692  TIP3      H1             -8.2765403985       -1.3803657466       19.8673753365  SOLV      8681            0.0000000000
     26157      8692  TIP3      H2             -8.0185103985       -2.8326157466       20.2083253365  SOLV      8681            0.0000000000
     26158      8693  TIP3      OH2           -20.3257203985       13.7682742534       19.6233753365  SOLV      8682            0.0000000000
     26159      8693  TIP3      H1            -21.0107303985       13.7301642534       18.9558853365  SOLV      8682            0.0000000000
     26160      8693  TIP3      H2            -20.3220003985       14.6810342534       19.9115853365  SOLV      8682            0.0000000000
     26161      8694  TIP3      OH2           -18.3657603985       -0.2637957466       17.1682753365  SOLV      8683            0.0000000000
     26162      8694  TIP3      H1            -17.8744203985       -0.8935557466       16.6408253365  SOLV      8683            0.0000000000
     26163      8694  TIP3      H2            -17.7421303985        0.0321442534       17.8313953365  SOLV      8683            0.0000000000
     26164      8695  TIP3      OH2           -13.3397503985        0.0293542534       19.6253253365  SOLV      8684            0.0000000000
     26165      8695  TIP3      H1            -13.1616203985       -0.6173257466       20.3081853365  SOLV      8684            0.0000000000
     26166      8695  TIP3      H2            -13.3931303985        0.8631242534       20.0924353365  SOLV      8684            0.0000000000
     26167      8696  TIP3      OH2           -11.4613703985       14.9777642534       18.0209953365  SOLV      8685            0.0000000000
     26168      8696  TIP3      H1            -10.5953503985       15.3445042534       17.8428153365  SOLV      8685            0.0000000000
     26169      8696  TIP3      H2            -11.7080903985       14.5385642534       17.2070753365  SOLV      8685            0.0000000000
     26170      8697  TIP3      OH2            -4.7524103985       14.5407942534       20.7001053365  SOLV      8686            0.0000000000
     26171      8697  TIP3      H1             -4.9467003985       13.7930042534       20.1350653365  SOLV      8686            0.0000000000
     26172      8697  TIP3      H2             -4.7914003985       15.2988042534       20.1168953365  SOLV      8686            0.0000000000
     26173      8698  TIP3      OH2           -19.1052103985       -1.4635657466       32.4398753365  SOLV      8687            0.0000000000
     26174      8698  TIP3      H1            -19.4713903985       -2.2293057466       32.8823453365  SOLV      8687            0.0000000000
     26175      8698  TIP3      H2            -18.1923603985       -1.4345457466       32.7263853365  SOLV      8687            0.0000000000
     26176      8699  TIP3      OH2           -17.1321303985       -2.1131257466       33.9755853365  SOLV      8688            0.0000000000
     26177      8699  TIP3      H1            -16.2337703985       -2.3871057466       33.7909253365  SOLV      8688            0.0000000000
     26178      8699  TIP3      H2            -17.5188203985       -2.8555257466       34.4398453365  SOLV      8688            0.0000000000
     26179      8700  TIP3      OH2           -18.5076003985       14.6883542534       16.6485853365  SOLV      8689            0.0000000000
     26180      8700  TIP3      H1            -18.7751403985       14.9746442534       17.5218953365  SOLV      8689            0.0000000000
     26181      8700  TIP3      H2            -17.7363403985       14.1422742534       16.8008353365  SOLV      8689            0.0000000000
     26182      8701  TIP3      OH2            -8.7109003985       -2.7805957466       34.1578653365  SOLV      8690            0.0000000000
     26183      8701  TIP3      H1             -8.6341803985       -3.2065257466       35.0116353365  SOLV      8690            0.0000000000
     26184      8701  TIP3      H2             -7.8172403985       -2.7671257466       33.8152153365  SOLV      8690            0.0000000000
     26185      8702  TIP3      OH2            -5.5347903985       13.2920342534       32.8502853365  SOLV      8691            0.0000000000
     26186      8702  TIP3      H1             -6.3166003985       13.1058342534       32.3303453365  SOLV      8691            0.0000000000
     26187      8702  TIP3      H2             -5.6068003985       14.2214642534       33.0675353365  SOLV      8691            0.0000000000
     26188      8703  TIP3      OH2             8.8712496015        7.1784742534       22.8810053365  SOLV      8692            0.0000000000
     26189      8703  TIP3      H1              8.9603596015        8.1222942534       22.7487153365  SOLV      8692            0.0000000000
     26190      8703  TIP3      H2              8.2330096015        6.9031142534       22.2229453365  SOLV      8692            0.0000000000
     26191      8704  TIP3      OH2             7.8043796015        6.4335442534       26.2998253365  SOLV      8693            0.0000000000
     26192      8704  TIP3      H1              7.7661296015        5.7871742534       27.0047853365  SOLV      8693            0.0000000000
     26193      8704  TIP3      H2              7.4820296015        5.9669842534       25.5286953365  SOLV      8693            0.0000000000
     26194      8705  TIP3      OH2             0.1728796015        6.0477542534       27.8928153365  SOLV      8694            0.0000000000
     26195      8705  TIP3      H1              0.2140896015        5.4220842534       28.6160553365  SOLV      8694            0.0000000000
     26196      8705  TIP3      H2              0.8756496015        6.6716142534       28.0748553365  SOLV      8694            0.0000000000
     26197      8706  TIP3      OH2            11.5103996015        9.3725842534       24.6013353365  SOLV      8695            0.0000000000
     26198      8706  TIP3      H1             11.0696696015        8.6521842534       25.0518953365  SOLV      8695            0.0000000000
     26199      8706  TIP3      H2             11.4973696015       10.0933042534       25.2311053365  SOLV      8695            0.0000000000
     26200      8707  TIP3      OH2             1.0961896015       10.4976442534       26.4277253365  SOLV      8696            0.0000000000
     26201      8707  TIP3      H1              0.7267096015        9.6956942534       26.0581553365  SOLV      8696            0.0000000000
     26202      8707  TIP3      H2              2.0372996015       10.3291342534       26.4740653365  SOLV      8696            0.0000000000
     26203      8708  TIP3      OH2            -2.2937603985        4.1579042534       21.8206053365  SOLV      8697            0.0000000000
     26204      8708  TIP3      H1             -2.7414203985        5.0037742534       21.8022553365  SOLV      8697            0.0000000000
     26205      8708  TIP3      H2             -2.8546403985        3.5783242534       21.3051153365  SOLV      8697            0.0000000000
     26206      8709  TIP3      OH2            -1.5831503985        6.3198642534       23.9464053365  SOLV      8698            0.0000000000
     26207      8709  TIP3      H1             -1.3698003985        5.5500242534       24.4737053365  SOLV      8698            0.0000000000
     26208      8709  TIP3      H2             -0.8453903985        6.4095342534       23.3431653365  SOLV      8698            0.0000000000
     26209      8710  TIP3      OH2             8.6219496015       14.4767542534       24.8133753365  SOLV      8699            0.0000000000
     26210      8710  TIP3      H1              9.2415896015       13.8002242534       24.5402953365  SOLV      8699            0.0000000000
     26211      8710  TIP3      H2              8.4136896015       14.2588342534       25.7218653365  SOLV      8699            0.0000000000
     26212      8711  TIP3      OH2             6.1938196015        8.8656842534       26.7059253365  SOLV      8700            0.0000000000
     26213      8711  TIP3      H1              6.4976096015        8.1798242534       26.1113353365  SOLV      8700            0.0000000000
     26214      8711  TIP3      H2              6.9152196015        8.9845542534       27.3237253365  SOLV      8700            0.0000000000
     26215      8712  TIP3      OH2            14.8567996015        0.4672142534       27.5665453365  SOLV      8701            0.0000000000
     26216      8712  TIP3      H1             14.9060196015        1.0773342534       28.3024553365  SOLV      8701            0.0000000000
     26217      8712  TIP3      H2             15.2823096015        0.9283042534       26.8436553365  SOLV      8701            0.0000000000
     26218      8713  TIP3      OH2             9.3345196015        3.2599242534       27.0334053365  SOLV      8702            0.0000000000
     26219      8713  TIP3      H1              9.4771096015        2.3136242534       27.0535653365  SOLV      8702            0.0000000000
     26220      8713  TIP3      H2              9.2284196015        3.4669042534       26.1048953365  SOLV      8702            0.0000000000
     26221      8714  TIP3      OH2             2.4893496015        1.3615642534       24.3058853365  SOLV      8703            0.0000000000
     26222      8714  TIP3      H1              2.5324596015        2.2214142534       23.8875153365  SOLV      8703            0.0000000000
     26223      8714  TIP3      H2              2.0317596015        0.8090342534       23.6722053365  SOLV      8703            0.0000000000
     26224      8715  TIP3      OH2            10.2116196015        1.4921242534       22.7067153365  SOLV      8704            0.0000000000
     26225      8715  TIP3      H1             10.8580496015        1.1634442534       23.3314753365  SOLV      8704            0.0000000000
     26226      8715  TIP3      H2             10.7215596015        2.0100242534       22.0838553365  SOLV      8704            0.0000000000
     26227      8716  TIP3      OH2             4.2659496015        5.3082742534       24.2831753365  SOLV      8705            0.0000000000
     26228      8716  TIP3      H1              4.8820496015        4.7818142534       24.7925753365  SOLV      8705            0.0000000000
     26229      8716  TIP3      H2              3.6798296015        4.6681442534       23.8795353365  SOLV      8705            0.0000000000
     26230      8717  TIP3      OH2            15.2482596015        1.9451342534       29.8025253365  SOLV      8706            0.0000000000
     26231      8717  TIP3      H1             14.5597196015        2.6032042534       29.7071853365  SOLV      8706            0.0000000000
     26232      8717  TIP3      H2             15.2637196015        1.7479242534       30.7390653365  SOLV      8706            0.0000000000
     26233      8718  TIP3      OH2             1.2995396015        0.2794042534       28.3799653365  SOLV      8707            0.0000000000
     26234      8718  TIP3      H1              1.0807096015        0.8094642534       27.6135653365  SOLV      8707            0.0000000000
     26235      8718  TIP3      H2              0.6316296015        0.5059542534       29.0271053365  SOLV      8707            0.0000000000
     26236      8719  TIP3      OH2             8.6685196015        9.7795142534       21.9238753365  SOLV      8708            0.0000000000
     26237      8719  TIP3      H1              8.3730296015        9.4567442534       21.0725653365  SOLV      8708            0.0000000000
     26238      8719  TIP3      H2              8.3442996015       10.6791842534       21.9651353365  SOLV      8708            0.0000000000
     26239      8720  TIP3      OH2             3.8686796015        7.9549742534       28.6673353365  SOLV      8709            0.0000000000
     26240      8720  TIP3      H1              3.1285896015        8.5531242534       28.7708553365  SOLV      8709            0.0000000000
     26241      8720  TIP3      H2              4.5826296015        8.5089342534       28.3516953365  SOLV      8709            0.0000000000
     26242      8721  TIP3      OH2            11.9754596015        0.7830542534       24.6873053365  SOLV      8710            0.0000000000
     26243      8721  TIP3      H1             11.7602596015        0.0173942534       25.2199053365  SOLV      8710            0.0000000000
     26244      8721  TIP3      H2             12.6311996015        1.2555142534       25.2001553365  SOLV      8710            0.0000000000
     26245      8722  TIP3      OH2             2.2761096015        9.9192742534       29.4544853365  SOLV      8711            0.0000000000
     26246      8722  TIP3      H1              2.2708696015       10.7986242534       29.0764153365  SOLV      8711            0.0000000000
     26247      8722  TIP3      H2              1.4225196015        9.8356842534       29.8794753365  SOLV      8711            0.0000000000
     26248      8723  TIP3      OH2            -1.6028003985        9.5900642534       20.2364153365  SOLV      8712            0.0000000000
     26249      8723  TIP3      H1             -1.8747103985        9.8191642534       19.3477053365  SOLV      8712            0.0000000000
     26250      8723  TIP3      H2             -1.5572303985       10.4279442534       20.6969453365  SOLV      8712            0.0000000000
     26251      8724  TIP3      OH2            12.0221696015       11.2116542534       26.9492653365  SOLV      8713            0.0000000000
     26252      8724  TIP3      H1             11.0805396015       11.2700442534       27.1109553365  SOLV      8713            0.0000000000
     26253      8724  TIP3      H2             12.2987796015       12.1177042534       26.8122353365  SOLV      8713            0.0000000000
     26254      8725  TIP3      OH2            12.3228696015       -0.5018157466       28.3666553365  SOLV      8714            0.0000000000
     26255      8725  TIP3      H1             11.5867896015        0.1088942534       28.3287853365  SOLV      8714            0.0000000000
     26256      8725  TIP3      H2             13.0062696015       -0.0869157466       27.8402953365  SOLV      8714            0.0000000000
     26257      8726  TIP3      OH2             5.3260096015       -2.4150857466       25.8324553365  SOLV      8715            0.0000000000
     26258      8726  TIP3      H1              5.2084296015       -3.3634857466       25.7782853365  SOLV      8715            0.0000000000
     26259      8726  TIP3      H2              4.4710196015       -2.0824757466       26.1055653365  SOLV      8715            0.0000000000
     26260      8727  TIP3      OH2            10.2742896015       12.9930042534       23.5744253365  SOLV      8716            0.0000000000
     26261      8727  TIP3      H1             10.6995196015       12.2857942534       23.0893853365  SOLV      8716            0.0000000000
     26262      8727  TIP3      H2             10.5912896015       13.7942742534       23.1576453365  SOLV      8716            0.0000000000
     26263      8728  TIP3      OH2            11.4339396015       10.8938542534       22.0830853365  SOLV      8717            0.0000000000
     26264      8728  TIP3      H1             11.1764196015       10.2038642534       21.4716753365  SOLV      8717            0.0000000000
     26265      8728  TIP3      H2             11.5050196015       10.4509742534       22.9286753365  SOLV      8717            0.0000000000
     26266      8729  TIP3      OH2            13.1199596015        9.4605242534       30.5604353365  SOLV      8718            0.0000000000
     26267      8729  TIP3      H1             13.2595896015        8.8687742534       29.8211353365  SOLV      8718            0.0000000000
     26268      8729  TIP3      H2             13.2872396015       10.3331142534       30.2043153365  SOLV      8718            0.0000000000
     26269      8730  TIP3      OH2             7.5924996015        6.4224742534       20.3330353365  SOLV      8719            0.0000000000
     26270      8730  TIP3      H1              6.8810496015        6.9574442534       19.9810853365  SOLV      8719            0.0000000000
     26271      8730  TIP3      H2              8.2834596015        6.4776842534       19.6729253365  SOLV      8719            0.0000000000
     26272      8731  TIP3      OH2             7.6464196015        4.8799042534       17.3715353365  SOLV      8720            0.0000000000
     26273      8731  TIP3      H1              8.3474096015        4.9025942534       18.0229353365  SOLV      8720            0.0000000000
     26274      8731  TIP3      H2              7.9487096015        4.2518742534       16.7154653365  SOLV      8720            0.0000000000
     26275      8732  TIP3      OH2            14.9618896015        5.8003242534       28.6264753365  SOLV      8721            0.0000000000
     26276      8732  TIP3      H1             14.3092996015        6.4948842534       28.7155653365  SOLV      8721            0.0000000000
     26277      8732  TIP3      H2             15.4269196015        6.0104142534       27.8166353365  SOLV      8721            0.0000000000
     26278      8733  TIP3      OH2            10.9982696015        6.6318042534       21.2846253365  SOLV      8722            0.0000000000
     26279      8733  TIP3      H1             10.2663696015        6.8601742534       21.8576853365  SOLV      8722            0.0000000000
     26280      8733  TIP3      H2             11.4454896015        5.9180742534       21.7393753365  SOLV      8722            0.0000000000
     26281      8734  TIP3      OH2            10.8956196015        4.8060642534       30.3523253365  SOLV      8723            0.0000000000
     26282      8734  TIP3      H1             10.9755296015        5.5695042534       30.9241753365  SOLV      8723            0.0000000000
     26283      8734  TIP3      H2             10.2943896015        5.0853042534       29.6618353365  SOLV      8723            0.0000000000
     26284      8735  TIP3      OH2             2.6436396015        7.2624242534       23.1671253365  SOLV      8724            0.0000000000
     26285      8735  TIP3      H1              2.3131596015        6.8917642534       22.3488253365  SOLV      8724            0.0000000000
     26286      8735  TIP3      H2              3.2320496015        6.5918242534       23.5139553365  SOLV      8724            0.0000000000
     26287      8736  TIP3      OH2             4.0103896015       10.6904842534       25.8483453365  SOLV      8725            0.0000000000
     26288      8736  TIP3      H1              3.9155196015       10.1117942534       25.0918053365  SOLV      8725            0.0000000000
     26289      8736  TIP3      H2              4.7397496015       10.3190542534       26.3446253365  SOLV      8725            0.0000000000
     26290      8737  TIP3      OH2             3.0101896015        6.0309842534       26.8006253365  SOLV      8726            0.0000000000
     26291      8737  TIP3      H1              3.5754396015        6.1524042534       26.0377453365  SOLV      8726            0.0000000000
     26292      8737  TIP3      H2              3.3290796015        6.6684842534       27.4394753365  SOLV      8726            0.0000000000
     26293      8738  TIP3      OH2             9.3194096015       11.5341742534       27.5346753365  SOLV      8727            0.0000000000
     26294      8738  TIP3      H1              9.0790696015       12.1964842534       28.1825953365  SOLV      8727            0.0000000000
     26295      8738  TIP3      H2              9.1212296015       10.6996942534       27.9596353365  SOLV      8727            0.0000000000
     26296      8739  TIP3      OH2             3.8902596015       10.4302542534       31.5178153365  SOLV      8728            0.0000000000
     26297      8739  TIP3      H1              3.5790096015       11.2125742534       31.9731353365  SOLV      8728            0.0000000000
     26298      8739  TIP3      H2              3.2402796015       10.2771642534       30.8320153365  SOLV      8728            0.0000000000
     26299      8740  TIP3      OH2             9.8692196015        5.7940942534       18.9697453365  SOLV      8729            0.0000000000
     26300      8740  TIP3      H1             10.4487696015        5.9441242534       19.7166353365  SOLV      8729            0.0000000000
     26301      8740  TIP3      H2             10.2832196015        6.2648342534       18.2463853365  SOLV      8729            0.0000000000
     26302      8741  TIP3      OH2             0.8102496015        6.6283642534       30.7463853365  SOLV      8730            0.0000000000
     26303      8741  TIP3      H1              0.8805696015        7.2790442534       31.4448853365  SOLV      8730            0.0000000000
     26304      8741  TIP3      H2             -0.0805303985        6.7311142534       30.4114753365  SOLV      8730            0.0000000000
     26305      8742  TIP3      OH2             7.5957096015       12.5309442534       22.4050553365  SOLV      8731            0.0000000000
     26306      8742  TIP3      H1              8.0694696015       12.8265742534       23.1824753365  SOLV      8731            0.0000000000
     26307      8742  TIP3      H2              7.0326396015       13.2691042534       22.1720153365  SOLV      8731            0.0000000000
     26308      8743  TIP3      OH2             2.1298496015       12.5017542534       32.2811953365  SOLV      8732            0.0000000000
     26309      8743  TIP3      H1              2.1373796015       12.3657242534       31.3337453365  SOLV      8732            0.0000000000
     26310      8743  TIP3      H2              1.2138896015       12.3845642534       32.5331953365  SOLV      8732            0.0000000000
     26311      8744  TIP3      OH2            13.5680596015       -2.4558657466       18.7827153365  SOLV      8733            0.0000000000
     26312      8744  TIP3      H1             12.6681296015       -2.3169657466       19.0777753365  SOLV      8733            0.0000000000
     26313      8744  TIP3      H2             13.8198996015       -1.6244057466       18.3808853365  SOLV      8733            0.0000000000
     26314      8745  TIP3      OH2             1.6339096015        6.3318542534       20.7564053365  SOLV      8734            0.0000000000
     26315      8745  TIP3      H1              1.3420396015        7.1000242534       20.2655353365  SOLV      8734            0.0000000000
     26316      8745  TIP3      H2              0.9594296015        5.6724742534       20.5935453365  SOLV      8734            0.0000000000
     26317      8746  TIP3      OH2            14.7571996015       11.9103742534       17.1591053365  SOLV      8735            0.0000000000
     26318      8746  TIP3      H1             14.8305496015       12.8493942534       17.3296353365  SOLV      8735            0.0000000000
     26319      8746  TIP3      H2             15.6627096015       11.6052342534       17.1028353365  SOLV      8735            0.0000000000
     26320      8747  TIP3      OH2            -2.2730803985        8.6947742534       29.5713853365  SOLV      8736            0.0000000000
     26321      8747  TIP3      H1             -2.7742403985        8.6667142534       28.7563553365  SOLV      8736            0.0000000000
     26322      8747  TIP3      H2             -2.2677103985        7.7890942534       29.8811153365  SOLV      8736            0.0000000000
     26323      8748  TIP3      OH2            -2.5228103985       11.4751542534       26.4554053365  SOLV      8737            0.0000000000
     26324      8748  TIP3      H1             -1.5767503985       11.3308542534       26.4363553365  SOLV      8737            0.0000000000
     26325      8748  TIP3      H2             -2.6351803985       12.2594342534       26.9925253365  SOLV      8737            0.0000000000
     26326      8749  TIP3      OH2             6.6534396015       11.7150442534       31.0139153365  SOLV      8738            0.0000000000
     26327      8749  TIP3      H1              6.7408996015       12.5415042534       31.4888253365  SOLV      8738            0.0000000000
     26328      8749  TIP3      H2              5.7899496015       11.3854242534       31.2628453365  SOLV      8738            0.0000000000
     26329      8750  TIP3      OH2             7.0680196015       15.4874142534       20.8199753365  SOLV      8739            0.0000000000
     26330      8750  TIP3      H1              6.9926196015       15.3661342534       19.8734953365  SOLV      8739            0.0000000000
     26331      8750  TIP3      H2              7.1008896015       16.4366842534       20.9384353365  SOLV      8739            0.0000000000
     26332      8751  TIP3      OH2             0.7213996015       14.2761142534       22.6008753365  SOLV      8740            0.0000000000
     26333      8751  TIP3      H1              0.8734396015       13.9281542534       23.4795253365  SOLV      8740            0.0000000000
     26334      8751  TIP3      H2             -0.1295603985       13.9198442534       22.3455953365  SOLV      8740            0.0000000000
     26335      8752  TIP3      OH2            10.1696196015       14.6414342534       17.8222153365  SOLV      8741            0.0000000000
     26336      8752  TIP3      H1             10.5444596015       13.8970442534       17.3514753365  SOLV      8741            0.0000000000
     26337      8752  TIP3      H2             10.1739896015       14.3714942534       18.7405453365  SOLV      8741            0.0000000000
     26338      8753  TIP3      OH2             9.8384296015       14.5671442534       20.5714353365  SOLV      8742            0.0000000000
     26339      8753  TIP3      H1              8.9034096015       14.6673342534       20.7501353365  SOLV      8742            0.0000000000
     26340      8753  TIP3      H2             10.1186196015       13.8577442534       21.1497553365  SOLV      8742            0.0000000000
     26341      8754  TIP3      OH2            12.8270196015        3.6343742534       32.6179953365  SOLV      8743            0.0000000000
     26342      8754  TIP3      H1             12.4196996015        4.1149342534       31.8973253365  SOLV      8743            0.0000000000
     26343      8754  TIP3      H2             12.8675896015        2.7289742534       32.3100753365  SOLV      8743            0.0000000000
     26344      8755  TIP3      OH2            -0.0240303985       10.0183142534       30.6146653365  SOLV      8744            0.0000000000
     26345      8755  TIP3      H1              0.1920996015        9.6568742534       31.4742453365  SOLV      8744            0.0000000000
     26346      8755  TIP3      H2             -0.8795603985        9.6436942534       30.4050153365  SOLV      8744            0.0000000000
     26347      8756  TIP3      OH2             2.5947696015       -1.5116357466       26.6100853365  SOLV      8745            0.0000000000
     26348      8756  TIP3      H1              1.7331396015       -1.5988157466       26.2023753365  SOLV      8745            0.0000000000
     26349      8756  TIP3      H2              2.5723396015       -0.6556257466       27.0378453365  SOLV      8745            0.0000000000
     26350      8757  TIP3      OH2             7.2575496015       -1.7895957466       29.9847853365  SOLV      8746            0.0000000000
     26351      8757  TIP3      H1              7.6778596015       -2.2048857466       30.7378453365  SOLV      8746            0.0000000000
     26352      8757  TIP3      H2              6.3245096015       -1.9682657466       30.1019853365  SOLV      8746            0.0000000000
     26353      8758  TIP3      OH2            10.5840396015        1.9659242534       30.8382353365  SOLV      8747            0.0000000000
     26354      8758  TIP3      H1             10.0699896015        1.8401442534       31.6358353365  SOLV      8747            0.0000000000
     26355      8758  TIP3      H2             10.4285096015        2.8782342534       30.5938553365  SOLV      8747            0.0000000000
     26356      8759  TIP3      OH2            11.3465296015        6.8269242534       16.5995353365  SOLV      8748            0.0000000000
     26357      8759  TIP3      H1             11.3886096015        6.6043142534       15.6695353365  SOLV      8748            0.0000000000
     26358      8759  TIP3      H2             12.1957396015        7.2256342534       16.7895253365  SOLV      8748            0.0000000000
     26359      8760  TIP3      OH2             6.9192796015        0.7027442534       17.2698653365  SOLV      8749            0.0000000000
     26360      8760  TIP3      H1              6.6657596015        0.7219042534       18.1926753365  SOLV      8749            0.0000000000
     26361      8760  TIP3      H2              6.6624896015       -0.1687157466       16.9684853365  SOLV      8749            0.0000000000
     26362      8761  TIP3      OH2             2.6826896015        3.6748242534       22.6171053365  SOLV      8750            0.0000000000
     26363      8761  TIP3      H1              1.7899796015        3.3344342534       22.5584853365  SOLV      8750            0.0000000000
     26364      8761  TIP3      H2              3.1333496015        3.2979142534       21.8614253365  SOLV      8750            0.0000000000
     26365      8762  TIP3      OH2             8.2182396015        4.0908542534       21.4341853365  SOLV      8751            0.0000000000
     26366      8762  TIP3      H1              7.8092696015        4.9057142534       21.1426653365  SOLV      8751            0.0000000000
     26367      8762  TIP3      H2              8.9388596015        3.9508642534       20.8198953365  SOLV      8751            0.0000000000
     26368      8763  TIP3      OH2             7.3203996015        4.2664942534       32.9222553365  SOLV      8752            0.0000000000
     26369      8763  TIP3      H1              6.7577796015        3.5616542534       33.2430353365  SOLV      8752            0.0000000000
     26370      8763  TIP3      H2              8.1467396015        4.1456842534       33.3900153365  SOLV      8752            0.0000000000
     26371      8764  TIP3      OH2             9.2230096015        3.5368942534       24.2481553365  SOLV      8753            0.0000000000
     26372      8764  TIP3      H1              9.0274596015        4.1425742534       23.5332153365  SOLV      8753            0.0000000000
     26373      8764  TIP3      H2              9.4042696015        2.7034142534       23.8137853365  SOLV      8753            0.0000000000
     26374      8765  TIP3      OH2             0.4358296015        3.7741642534       29.5723053365  SOLV      8754            0.0000000000
     26375      8765  TIP3      H1              0.3977696015        4.1743242534       30.4410153365  SOLV      8754            0.0000000000
     26376      8765  TIP3      H2             -0.0550603985        2.9574042534       29.6625953365  SOLV      8754            0.0000000000
     26377      8766  TIP3      OH2             3.8015696015        1.1483942534       16.3709053365  SOLV      8755            0.0000000000
     26378      8766  TIP3      H1              3.3706396015        0.7034042534       17.1006453365  SOLV      8755            0.0000000000
     26379      8766  TIP3      H2              3.0834396015        1.5200242534       15.8586553365  SOLV      8755            0.0000000000
     26380      8767  TIP3      OH2            -2.9560903985        0.8903442534       23.4227753365  SOLV      8756            0.0000000000
     26381      8767  TIP3      H1             -2.3253203985        0.8615542534       24.1421653365  SOLV      8756            0.0000000000
     26382      8767  TIP3      H2             -2.5066603985        0.4652142534       22.6923653365  SOLV      8756            0.0000000000
     26383      8768  TIP3      OH2            -1.6818803985        1.6365442534       18.8468153365  SOLV      8757            0.0000000000
     26384      8768  TIP3      H1             -1.2077103985        2.2275342534       18.2619053365  SOLV      8757            0.0000000000
     26385      8768  TIP3      H2             -2.3992403985        2.1668342534       19.1938253365  SOLV      8757            0.0000000000
     26386      8769  TIP3      OH2             8.4869296015        5.1750242534       28.9193953365  SOLV      8758            0.0000000000
     26387      8769  TIP3      H1              8.8104096015        4.5439942534       28.2764453365  SOLV      8758            0.0000000000
     26388      8769  TIP3      H2              8.0468596015        4.6402442534       29.5801353365  SOLV      8758            0.0000000000
     26389      8770  TIP3      OH2             5.2642196015        1.1025742534       23.7035153365  SOLV      8759            0.0000000000
     26390      8770  TIP3      H1              4.3533296015        1.1592542534       23.9921153365  SOLV      8759            0.0000000000
     26391      8770  TIP3      H2              5.7695096015        1.0421242534       24.5142353365  SOLV      8759            0.0000000000
     26392      8771  TIP3      OH2             0.0925596015        2.7312042534       22.5302753365  SOLV      8760            0.0000000000
     26393      8771  TIP3      H1             -0.7966403985        2.8307542534       22.1902353365  SOLV      8760            0.0000000000
     26394      8771  TIP3      H2              0.3890496015        1.8895042534       22.1840653365  SOLV      8760            0.0000000000
     26395      8772  TIP3      OH2             3.7457396015        2.7314642534       20.1867353365  SOLV      8761            0.0000000000
     26396      8772  TIP3      H1              4.6772896015        2.8604642534       20.3650453365  SOLV      8761            0.0000000000
     26397      8772  TIP3      H2              3.5307696015        3.4008942534       19.5372053365  SOLV      8761            0.0000000000
     26398      8773  TIP3      OH2             9.6694096015        0.3372042534       26.9676953365  SOLV      8762            0.0000000000
     26399      8773  TIP3      H1              8.9925696015        0.4685142534       27.6316653365  SOLV      8762            0.0000000000
     26400      8773  TIP3      H2              9.1838996015        0.1821542534       26.1574653365  SOLV      8762            0.0000000000
     26401      8774  TIP3      OH2             2.4197596015        3.9256842534       17.7533453365  SOLV      8763            0.0000000000
     26402      8774  TIP3      H1              1.8772696015        3.5460642534       17.0621053365  SOLV      8763            0.0000000000
     26403      8774  TIP3      H2              3.2532496015        4.1201542534       17.3247553365  SOLV      8763            0.0000000000
     26404      8775  TIP3      OH2             0.5548996015        8.4828742534       32.8525053365  SOLV      8764            0.0000000000
     26405      8775  TIP3      H1              1.2871396015        8.7374642534       33.4139553365  SOLV      8764            0.0000000000
     26406      8775  TIP3      H2             -0.2252303985        8.6874142534       33.3680453365  SOLV      8764            0.0000000000
     26407      8776  TIP3      OH2             6.5841896015        3.8898742534       25.5904753365  SOLV      8765            0.0000000000
     26408      8776  TIP3      H1              7.1485296015        3.3435342534       25.0434353365  SOLV      8765            0.0000000000
     26409      8776  TIP3      H2              6.4365296015        3.3680642534       26.3792353365  SOLV      8765            0.0000000000
     26410      8777  TIP3      OH2             1.5861596015        0.0264842534       22.0089553365  SOLV      8766            0.0000000000
     26411      8777  TIP3      H1              1.2691096015       -0.8759857466       21.9734953365  SOLV      8766            0.0000000000
     26412      8777  TIP3      H2              2.3675696015        0.0282242534       21.4561153365  SOLV      8766            0.0000000000
     26413      8778  TIP3      OH2             5.2107796015        2.2784842534       28.0045153365  SOLV      8767            0.0000000000
     26414      8778  TIP3      H1              4.3753096015        2.7324342534       28.1147553365  SOLV      8767            0.0000000000
     26415      8778  TIP3      H2              5.7348396015        2.5543342534       28.7565053365  SOLV      8767            0.0000000000
     26416      8779  TIP3      OH2             5.7550396015        8.4912542534       19.6891553365  SOLV      8768            0.0000000000
     26417      8779  TIP3      H1              5.0101396015        7.9837842534       19.3669453365  SOLV      8768            0.0000000000
     26418      8779  TIP3      H2              5.6207596015        8.5400542534       20.6356353365  SOLV      8768            0.0000000000
     26419      8780  TIP3      OH2            12.9049296015        7.6240742534       28.4759153365  SOLV      8769            0.0000000000
     26420      8780  TIP3      H1             13.5468096015        8.0807042534       27.9321353365  SOLV      8769            0.0000000000
     26421      8780  TIP3      H2             12.0746196015        7.7373142534       28.0133253365  SOLV      8769            0.0000000000
     26422      8781  TIP3      OH2             9.6527196015        1.3052442534       17.8884153365  SOLV      8770            0.0000000000
     26423      8781  TIP3      H1              8.7141396015        1.4168042534       17.7372953365  SOLV      8770            0.0000000000
     26424      8781  TIP3      H2              9.9499296015        2.1619342534       18.1949853365  SOLV      8770            0.0000000000
     26425      8782  TIP3      OH2             7.2742496015        8.6755842534       30.9260653365  SOLV      8771            0.0000000000
     26426      8782  TIP3      H1              6.9288596015        8.2938242534       31.7330253365  SOLV      8771            0.0000000000
     26427      8782  TIP3      H2              7.0742596015        9.6089442534       30.9973553365  SOLV      8771            0.0000000000
     26428      8783  TIP3      OH2            10.3710696015        3.1725142534       19.5491553365  SOLV      8772            0.0000000000
     26429      8783  TIP3      H1             11.2629696015        3.0350142534       19.8682753365  SOLV      8772            0.0000000000
     26430      8783  TIP3      H2             10.4274296015        3.9631242534       19.0125053365  SOLV      8772            0.0000000000
     26431      8784  TIP3      OH2             0.8798696015        7.7862542534       25.4589453365  SOLV      8773            0.0000000000
     26432      8784  TIP3      H1              1.6245896015        7.7838242534       24.8575953365  SOLV      8773            0.0000000000
     26433      8784  TIP3      H2              0.9575296015        6.9626342534       25.9404553365  SOLV      8773            0.0000000000
     26434      8785  TIP3      OH2             7.8804496015        9.9496842534       18.7146153365  SOLV      8774            0.0000000000
     26435      8785  TIP3      H1              7.5852896015       10.7764742534       19.0960953365  SOLV      8774            0.0000000000
     26436      8785  TIP3      H2              7.1774496015        9.3303742534       18.9107553365  SOLV      8774            0.0000000000
     26437      8786  TIP3      OH2            -2.1121603985        6.2469442534       30.7737953365  SOLV      8775            0.0000000000
     26438      8786  TIP3      H1             -1.8893003985        5.8289042534       31.6055453365  SOLV      8775            0.0000000000
     26439      8786  TIP3      H2             -2.7141503985        5.6344442534       30.3510753365  SOLV      8775            0.0000000000
     26440      8787  TIP3      OH2             4.9043296015        5.7639342534       32.9867653365  SOLV      8776            0.0000000000
     26441      8787  TIP3      H1              4.6084096015        5.5982342534       32.0916753365  SOLV      8776            0.0000000000
     26442      8787  TIP3      H2              5.8358496015        5.5439642534       32.9761553365  SOLV      8776            0.0000000000
     26443      8788  TIP3      OH2             9.5246096015       11.1371342534       30.8765653365  SOLV      8777            0.0000000000
     26444      8788  TIP3      H1              8.6240396015       11.3203942534       30.6089553365  SOLV      8777            0.0000000000
     26445      8788  TIP3      H2              9.5587196015       11.3960642534       31.7974453365  SOLV      8777            0.0000000000
     26446      8789  TIP3      OH2            15.2559396015        3.3819242534       19.2438253365  SOLV      8778            0.0000000000
     26447      8789  TIP3      H1             14.7015696015        2.9857242534       18.5715753365  SOLV      8778            0.0000000000
     26448      8789  TIP3      H2             15.3562996015        4.2924442534       18.9661553365  SOLV      8778            0.0000000000
     26449      8790  TIP3      OH2            15.2191396015        9.1820942534       32.0809753365  SOLV      8779            0.0000000000
     26450      8790  TIP3      H1             14.3679896015        9.4204742534       31.7136153365  SOLV      8779            0.0000000000
     26451      8790  TIP3      H2             15.8094796015        9.1654142534       31.3276853365  SOLV      8779            0.0000000000
     26452      8791  TIP3      OH2            13.5511096015       12.1679642534       19.7090353365  SOLV      8780            0.0000000000
     26453      8791  TIP3      H1             13.1782196015       11.3423442534       20.0180953365  SOLV      8780            0.0000000000
     26454      8791  TIP3      H2             13.8284596015       11.9849042534       18.8113753365  SOLV      8780            0.0000000000
     26455      8792  TIP3      OH2            10.7114996015        6.9759142534       26.7302253365  SOLV      8781            0.0000000000
     26456      8792  TIP3      H1              9.7831896015        6.7441042534       26.7031553365  SOLV      8781            0.0000000000
     26457      8792  TIP3      H2             11.1626096015        6.1988942534       26.4001053365  SOLV      8781            0.0000000000
     26458      8793  TIP3      OH2             3.2548096015       11.3040742534       22.8630953365  SOLV      8782            0.0000000000
     26459      8793  TIP3      H1              3.7820296015       12.0775142534       22.6629753365  SOLV      8782            0.0000000000
     26460      8793  TIP3      H2              2.3746596015       11.5289942534       22.5614953365  SOLV      8782            0.0000000000
     26461      8794  TIP3      OH2            -0.9904203985        6.1664842534       17.4503353365  SOLV      8783            0.0000000000
     26462      8794  TIP3      H1             -0.3744303985        6.7932042534       17.8298153365  SOLV      8783            0.0000000000
     26463      8794  TIP3      H2             -1.8521603985        6.4824642534       17.7219853365  SOLV      8783            0.0000000000
     26464      8795  TIP3      OH2             4.6820396015        8.9670642534       22.4395253365  SOLV      8784            0.0000000000
     26465      8795  TIP3      H1              4.4410396015        9.8925042534       22.4810553365  SOLV      8784            0.0000000000
     26466      8795  TIP3      H2              3.9413996015        8.5081942534       22.8359153365  SOLV      8784            0.0000000000
     26467      8796  TIP3      OH2             5.1966996015       13.1164242534       28.7546353365  SOLV      8785            0.0000000000
     26468      8796  TIP3      H1              5.5591696015       13.9709842534       28.5210753365  SOLV      8785            0.0000000000
     26469      8796  TIP3      H2              5.7282196015       12.8245842534       29.4952653365  SOLV      8785            0.0000000000
     26470      8797  TIP3      OH2             3.3651196015       13.9888242534       21.9847453365  SOLV      8786            0.0000000000
     26471      8797  TIP3      H1              2.4151696015       14.0945642534       22.0360753365  SOLV      8786            0.0000000000
     26472      8797  TIP3      H2              3.7169296015       14.8095642534       22.3294953365  SOLV      8786            0.0000000000
     26473      8798  TIP3      OH2             8.7407796015        9.2154942534       28.4551953365  SOLV      8787            0.0000000000
     26474      8798  TIP3      H1              8.3149096015        8.9876642534       29.2815953365  SOLV      8787            0.0000000000
     26475      8798  TIP3      H2              9.3213596015        8.4766742534       28.2727253365  SOLV      8787            0.0000000000
     26476      8799  TIP3      OH2            10.9436696015       10.1445442534       17.5290953365  SOLV      8788            0.0000000000
     26477      8799  TIP3      H1             11.2969796015        9.7645242534       18.3334453365  SOLV      8788            0.0000000000
     26478      8799  TIP3      H2              9.9950196015       10.0510242534       17.6160253365  SOLV      8788            0.0000000000
     26479      8800  TIP3      OH2            11.3991996015       13.7674442534       30.9246753365  SOLV      8789            0.0000000000
     26480      8800  TIP3      H1             10.7975196015       13.2117342534       30.4293053365  SOLV      8789            0.0000000000
     26481      8800  TIP3      H2             11.6805696015       14.4344242534       30.2984153365  SOLV      8789            0.0000000000
     26482      8801  TIP3      OH2            15.4471096015       14.6237942534       17.7301153365  SOLV      8790            0.0000000000
     26483      8801  TIP3      H1             16.1908996015       15.2098442534       17.5902753365  SOLV      8790            0.0000000000
     26484      8801  TIP3      H2             14.7529196015       15.1923742534       18.0633553365  SOLV      8790            0.0000000000
     26485      8802  TIP3      OH2            -0.4782103985        1.0002142534       30.3319353365  SOLV      8791            0.0000000000
     26486      8802  TIP3      H1             -1.3709803985        1.3387542534       30.2643353365  SOLV      8791            0.0000000000
     26487      8802  TIP3      H2             -0.5769303985        0.1448242534       30.7500153365  SOLV      8791            0.0000000000
     26488      8803  TIP3      OH2            11.8095996015        8.8167442534       19.7558853365  SOLV      8792            0.0000000000
     26489      8803  TIP3      H1             11.5323596015        8.0886742534       20.3119953365  SOLV      8792            0.0000000000
     26490      8803  TIP3      H2             12.7368996015        8.9359442534       19.9611453365  SOLV      8792            0.0000000000
     26491      8804  TIP3      OH2            -0.8270103985       12.8046542534       28.7668753365  SOLV      8793            0.0000000000
     26492      8804  TIP3      H1             -0.6099803985       11.8728942534       28.7358453365  SOLV      8793            0.0000000000
     26493      8804  TIP3      H2             -0.5806603985       13.0791542534       29.6501553365  SOLV      8793            0.0000000000
     26494      8805  TIP3      OH2             5.0344496015       11.2561542534       15.9760953365  SOLV      8794            0.0000000000
     26495      8805  TIP3      H1              5.2734296015       10.5079642534       15.4289853365  SOLV      8794            0.0000000000
     26496      8805  TIP3      H2              4.7655796015       10.8683242534       16.8088753365  SOLV      8794            0.0000000000
     26497      8806  TIP3      OH2             3.9715096015       10.8265342534       18.4323553365  SOLV      8795            0.0000000000
     26498      8806  TIP3      H1              4.1183096015       10.3065142534       19.2224453365  SOLV      8795            0.0000000000
     26499      8806  TIP3      H2              3.9686796015       11.7332942534       18.7389453365  SOLV      8795            0.0000000000
     26500      8807  TIP3      OH2             0.4246196015        8.0788642534       18.9428953365  SOLV      8796            0.0000000000
     26501      8807  TIP3      H1             -0.2614503985        8.4311142534       19.5098653365  SOLV      8796            0.0000000000
     26502      8807  TIP3      H2              0.9474096015        8.8418242534       18.6963253365  SOLV      8796            0.0000000000
     26503      8808  TIP3      OH2             8.2561296015        0.7412442534       29.2217953365  SOLV      8797            0.0000000000
     26504      8808  TIP3      H1              8.9549196015        0.8151142534       29.8717653365  SOLV      8797            0.0000000000
     26505      8808  TIP3      H2              7.8752696015       -0.1232557466       29.3760853365  SOLV      8797            0.0000000000
     26506      8809  TIP3      OH2             9.0406196015        0.3934142534       20.3190253365  SOLV      8798            0.0000000000
     26507      8809  TIP3      H1              9.2604496015        0.8649542534       19.5155653365  SOLV      8798            0.0000000000
     26508      8809  TIP3      H2              9.5990196015        0.7876742534       20.9890853365  SOLV      8798            0.0000000000
     26509      8810  TIP3      OH2             6.7092296015       12.5238942534       19.1817753365  SOLV      8799            0.0000000000
     26510      8810  TIP3      H1              5.8928396015       13.0208642534       19.2342053365  SOLV      8799            0.0000000000
     26511      8810  TIP3      H2              7.2388596015       12.9992442534       18.5416553365  SOLV      8799            0.0000000000
     26512      8811  TIP3      OH2             6.2406096015        2.1212942534       21.1538653365  SOLV      8800            0.0000000000
     26513      8811  TIP3      H1              7.0528696015        2.6256142534       21.2000353365  SOLV      8800            0.0000000000
     26514      8811  TIP3      H2              5.9959096015        1.9762642534       22.0678253365  SOLV      8800            0.0000000000
     26515      8812  TIP3      OH2             6.7762496015        3.1075642534       30.3385253365  SOLV      8801            0.0000000000
     26516      8812  TIP3      H1              6.8952796015        3.6811042534       31.0955653365  SOLV      8801            0.0000000000
     26517      8812  TIP3      H2              7.4317096015        2.4195042534       30.4533053365  SOLV      8801            0.0000000000
     26518      8813  TIP3      OH2             7.1242796015       -0.7974057466       22.0919753365  SOLV      8802            0.0000000000
     26519      8813  TIP3      H1              6.7776296015       -0.1803457466       22.7364053365  SOLV      8802            0.0000000000
     26520      8813  TIP3      H2              7.7829696015       -0.2968357466       21.6105253365  SOLV      8802            0.0000000000
     26521      8814  TIP3      OH2             4.0475396015       13.5676142534       19.1634653365  SOLV      8803            0.0000000000
     26522      8814  TIP3      H1              4.2084096015       14.3673642534       18.6627253365  SOLV      8803            0.0000000000
     26523      8814  TIP3      H2              3.8503196015       13.8742142534       20.0485253365  SOLV      8803            0.0000000000
     26524      8815  TIP3      OH2             2.7819796015        0.2655342534       18.7792253365  SOLV      8804            0.0000000000
     26525      8815  TIP3      H1              2.6984596015        1.1538442534       19.1258653365  SOLV      8804            0.0000000000
     26526      8815  TIP3      H2              3.6720096015        0.0002042534       19.0109053365  SOLV      8804            0.0000000000
     26527      8816  TIP3      OH2            12.9808296015        1.0145942534       31.1734953365  SOLV      8805            0.0000000000
     26528      8816  TIP3      H1             12.0644096015        1.2767642534       31.0858653365  SOLV      8805            0.0000000000
     26529      8816  TIP3      H2             13.3163296015        1.0114942534       30.2770253365  SOLV      8805            0.0000000000
     26530      8817  TIP3      OH2            11.5829296015        4.7646942534       25.2692253365  SOLV      8806            0.0000000000
     26531      8817  TIP3      H1             10.7853696015        4.3497142534       24.9407253365  SOLV      8806            0.0000000000
     26532      8817  TIP3      H2             12.0280396015        4.0740642534       25.7602753365  SOLV      8806            0.0000000000
     26533      8818  TIP3      OH2             1.0405096015       10.6927542534       17.8396753365  SOLV      8807            0.0000000000
     26534      8818  TIP3      H1              1.6326596015       11.3922342534       18.1159153365  SOLV      8807            0.0000000000
     26535      8818  TIP3      H2              1.4998096015       10.2597042534       17.1201353365  SOLV      8807            0.0000000000
     26536      8819  TIP3      OH2            -0.6435703985        3.3570542534       16.9556153365  SOLV      8808            0.0000000000
     26537      8819  TIP3      H1             -0.6883103985        4.2963642534       17.1343153365  SOLV      8808            0.0000000000
     26538      8819  TIP3      H2             -1.5312503985        3.1215442534       16.6858253365  SOLV      8808            0.0000000000
     26539      8820  TIP3      OH2            12.6693896015       14.0209442534       26.8915753365  SOLV      8809            0.0000000000
     26540      8820  TIP3      H1             12.5138196015       14.6993842534       26.2345053365  SOLV      8809            0.0000000000
     26541      8820  TIP3      H2             13.6020296015       14.0928742534       27.0946353365  SOLV      8809            0.0000000000
     26542      8821  TIP3      OH2             0.1646296015       -1.8612857466       25.6287153365  SOLV      8810            0.0000000000
     26543      8821  TIP3      H1             -0.0643903985       -1.8020357466       24.7012153365  SOLV      8810            0.0000000000
     26544      8821  TIP3      H2             -0.2780303985       -2.6527357466       25.9351253365  SOLV      8810            0.0000000000
     26545      8822  TIP3      OH2            -0.9050403985       12.0794242534       21.7892953365  SOLV      8811            0.0000000000
     26546      8822  TIP3      H1             -1.7371803985       12.5516942534       21.8164353365  SOLV      8811            0.0000000000
     26547      8822  TIP3      H2             -0.3592103985       12.5891842534       21.1906053365  SOLV      8811            0.0000000000
     26548      8823  TIP3      OH2            -1.6166703985       14.6917942534       33.1190953365  SOLV      8812            0.0000000000
     26549      8823  TIP3      H1             -1.0764503985       14.4751942534       33.8790153365  SOLV      8812            0.0000000000
     26550      8823  TIP3      H2             -2.0978703985       13.8863942534       32.9293453365  SOLV      8812            0.0000000000
     26551      8824  TIP3      OH2             2.9806696015       13.6112342534       34.7395153365  SOLV      8813            0.0000000000
     26552      8824  TIP3      H1              3.7483896015       13.1523142534       35.0804353365  SOLV      8813            0.0000000000
     26553      8824  TIP3      H2              2.9592896015       13.3852142534       33.8096353365  SOLV      8813            0.0000000000
     26554      8825  TIP3      OH2             7.0726296015       13.1192942534       16.1146953365  SOLV      8814            0.0000000000
     26555      8825  TIP3      H1              6.4287296015       12.4881542534       16.4360653365  SOLV      8814            0.0000000000
     26556      8825  TIP3      H2              7.8344596015       12.5880942534       15.8830453365  SOLV      8814            0.0000000000
     26557      8826  TIP3      OH2             9.5575396015       11.9913442534       33.4686653365  SOLV      8815            0.0000000000
     26558      8826  TIP3      H1              9.2064896015       11.1346442534       33.7117053365  SOLV      8815            0.0000000000
     26559      8826  TIP3      H2             10.2838596015       12.1340142534       34.0755653365  SOLV      8815            0.0000000000
     26560      8827  TIP3      OH2            11.6769196015       12.9362842534       16.3484953365  SOLV      8816            0.0000000000
     26561      8827  TIP3      H1             11.9599596015       12.1418042534       16.8011853365  SOLV      8816            0.0000000000
     26562      8827  TIP3      H2             12.4167096015       13.1693842534       15.7876053365  SOLV      8816            0.0000000000
     26563      8828  TIP3      OH2            -1.7097203985        8.5022042534       34.0735253365  SOLV      8817            0.0000000000
     26564      8828  TIP3      H1             -1.5656703985        7.6002742534       33.7871953365  SOLV      8817            0.0000000000
     26565      8828  TIP3      H2             -2.4819803985        8.7884142534       33.5857553365  SOLV      8817            0.0000000000
     26566      8829  TIP3      OH2             2.6316496015        8.8457742534       16.2059853365  SOLV      8818            0.0000000000
     26567      8829  TIP3      H1              2.6960596015        8.0517342534       16.7366253365  SOLV      8818            0.0000000000
     26568      8829  TIP3      H2              3.2845696015        8.7270542534       15.5161853365  SOLV      8818            0.0000000000
     26569      8830  TIP3      OH2             4.9458896015        8.4720142534       33.5061653365  SOLV      8819            0.0000000000
     26570      8830  TIP3      H1              4.6172696015        8.7428242534       32.6489053365  SOLV      8819            0.0000000000
     26571      8830  TIP3      H2              5.0977096015        7.5309942534       33.4186653365  SOLV      8819            0.0000000000
     26572      8831  TIP3      OH2             7.9839896015        9.8929442534       15.9417853365  SOLV      8820            0.0000000000
     26573      8831  TIP3      H1              7.7153996015       10.0731542534       16.8426753365  SOLV      8820            0.0000000000
     26574      8831  TIP3      H2              7.7775496015        8.9675642534       15.8103653365  SOLV      8820            0.0000000000
     26575      8832  TIP3      OH2            10.6804096015        8.3877442534       30.8893953365  SOLV      8821            0.0000000000
     26576      8832  TIP3      H1             11.4258896015        8.9761142534       30.7697953365  SOLV      8821            0.0000000000
     26577      8832  TIP3      H2              9.9230896015        8.9697142534       30.9527053365  SOLV      8821            0.0000000000
     26578      8833  TIP3      OH2            -0.8770703985        5.7025342534       33.4934553365  SOLV      8822            0.0000000000
     26579      8833  TIP3      H1             -0.4689503985        4.8451942534       33.3725153365  SOLV      8822            0.0000000000
     26580      8833  TIP3      H2             -1.1373103985        5.7166642534       34.4144853365  SOLV      8822            0.0000000000
     26581      8834  TIP3      OH2             3.7810296015        6.8183942534       18.5117853365  SOLV      8823            0.0000000000
     26582      8834  TIP3      H1              3.3212296015        6.3342242534       19.1976353365  SOLV      8823            0.0000000000
     26583      8834  TIP3      H2              4.0358996015        6.1499342534       17.8758353365  SOLV      8823            0.0000000000
     26584      8835  TIP3      OH2             3.0699596015        4.7111042534       30.8677453365  SOLV      8824            0.0000000000
     26585      8835  TIP3      H1              2.4515696015        5.3857642534       31.1482153365  SOLV      8824            0.0000000000
     26586      8835  TIP3      H2              3.4140796015        5.0324942534       30.0343653365  SOLV      8824            0.0000000000
     26587      8836  TIP3      OH2             4.8520696015        5.0615742534       16.7741053365  SOLV      8825            0.0000000000
     26588      8836  TIP3      H1              4.6715696015        4.9066942534       15.8469353365  SOLV      8825            0.0000000000
     26589      8836  TIP3      H2              5.8021196015        5.1694442534       16.8188953365  SOLV      8825            0.0000000000
     26590      8837  TIP3      OH2             8.0897796015        7.1826342534       34.1452253365  SOLV      8826            0.0000000000
     26591      8837  TIP3      H1              9.0428996015        7.2665442534       34.1178253365  SOLV      8826            0.0000000000
     26592      8837  TIP3      H2              7.9292396015        6.4708142534       34.7647153365  SOLV      8826            0.0000000000
     26593      8838  TIP3      OH2            14.2418996015        7.4159942534       16.2199153365  SOLV      8827            0.0000000000
     26594      8838  TIP3      H1             13.9683796015        6.9915442534       15.4067453365  SOLV      8827            0.0000000000
     26595      8838  TIP3      H2             14.2813096015        8.3474442534       16.0029553365  SOLV      8827            0.0000000000
     26596      8839  TIP3      OH2             3.4093296015        2.0661842534       31.9500553365  SOLV      8828            0.0000000000
     26597      8839  TIP3      H1              3.5594196015        1.3373142534       31.3480253365  SOLV      8828            0.0000000000
     26598      8839  TIP3      H2              3.4115696015        2.8433542534       31.3912753365  SOLV      8828            0.0000000000
     26599      8840  TIP3      OH2             3.8218996015        0.4357642534       29.4427953365  SOLV      8829            0.0000000000
     26600      8840  TIP3      H1              4.3576496015        0.8874342534       28.7907253365  SOLV      8829            0.0000000000
     26601      8840  TIP3      H2              2.9698596015        0.3277442534       29.0202053365  SOLV      8829            0.0000000000
     26602      8841  TIP3      OH2             5.4037396015        5.8753842534       29.6823153365  SOLV      8830            0.0000000000
     26603      8841  TIP3      H1              6.1542196015        5.7191342534       29.1090953365  SOLV      8830            0.0000000000
     26604      8841  TIP3      H2              5.0645696015        6.7270442534       29.4068653365  SOLV      8830            0.0000000000
     26605      8842  TIP3      OH2             9.8193596015        3.6905642534       34.7108453365  SOLV      8831            0.0000000000
     26606      8842  TIP3      H1             10.0114896015        2.7595042534       34.5992953365  SOLV      8831            0.0000000000
     26607      8842  TIP3      H2             10.6769896015        4.1155142534       34.7003853365  SOLV      8831            0.0000000000
     26608      8843  TIP3      OH2            11.1360796015        6.4790842534       32.7881153365  SOLV      8832            0.0000000000
     26609      8843  TIP3      H1             10.8545796015        7.1885442534       32.2104953365  SOLV      8832            0.0000000000
     26610      8843  TIP3      H2             12.0785096015        6.4063842534       32.6372353365  SOLV      8832            0.0000000000
     26611      8844  TIP3      OH2             1.8879596015        3.2645342534       33.8616153365  SOLV      8833            0.0000000000
     26612      8844  TIP3      H1              1.1208596015        2.7320142534       33.6513753365  SOLV      8833            0.0000000000
     26613      8844  TIP3      H2              2.5668596015        2.9545742534       33.2622453365  SOLV      8833            0.0000000000
     26614      8845  TIP3      OH2             4.6274496015       -2.1076657466       29.8741553365  SOLV      8834            0.0000000000
     26615      8845  TIP3      H1              4.5294096015       -1.1613457466       29.7687753365  SOLV      8834            0.0000000000
     26616      8845  TIP3      H2              3.8850696015       -2.4802857466       29.3985053365  SOLV      8834            0.0000000000
     26617      8846  TIP3      OH2             5.8914996015        2.2138742534       33.4379953365  SOLV      8835            0.0000000000
     26618      8846  TIP3      H1              5.6560396015        1.9945442534       34.3394853365  SOLV      8835            0.0000000000
     26619      8846  TIP3      H2              5.1081896015        2.0069942534       32.9282453365  SOLV      8835            0.0000000000
     26620      8847  TIP3      OH2             8.6071596015        1.3412242534       32.5133453365  SOLV      8836            0.0000000000
     26621      8847  TIP3      H1              7.6596996015        1.3731942534       32.6456753365  SOLV      8836            0.0000000000
     26622      8847  TIP3      H2              8.9198296015        0.7159342534       33.1671653365  SOLV      8836            0.0000000000
     26623      8848  TIP3      OH2            10.2413096015       -0.0246657466       34.5185353365  SOLV      8837            0.0000000000
     26624      8848  TIP3      H1             10.1444896015       -0.9769357466       34.5127253365  SOLV      8837            0.0000000000
     26625      8848  TIP3      H2              9.9196196015        0.2440142534       35.3790853365  SOLV      8837            0.0000000000
     26626      8849  TIP3      OH2             0.0682396015        1.1849142534       33.5660853365  SOLV      8838            0.0000000000
     26627      8849  TIP3      H1              0.2799796015        0.4785242534       32.9558353365  SOLV      8838            0.0000000000
     26628      8849  TIP3      H2             -0.0430103985        0.7475142534       34.4102053365  SOLV      8838            0.0000000000
     26629      8850  TIP3      OH2             4.8492596015       -2.8139257466       32.5454353365  SOLV      8839            0.0000000000
     26630      8850  TIP3      H1              5.5610996015       -3.4537057466       32.5313453365  SOLV      8839            0.0000000000
     26631      8850  TIP3      H2              4.7482996015       -2.5470957466       31.6317453365  SOLV      8839            0.0000000000
     26632      8851  TIP3      OH2             5.2030096015       -1.1310857466       34.5990653365  SOLV      8840            0.0000000000
     26633      8851  TIP3      H1              5.0712296015       -1.6067057466       33.7789153365  SOLV      8840            0.0000000000
     26634      8851  TIP3      H2              4.6037496015       -0.3867257466       34.5437753365  SOLV      8840            0.0000000000
     26635      8852  TIP3      OH2             4.7492396015       15.7519442534       17.7754653365  SOLV      8841            0.0000000000
     26636      8852  TIP3      H1              5.6823096015       15.9098142534       17.9193053365  SOLV      8841            0.0000000000
     26637      8852  TIP3      H2              4.4851196015       16.4272442534       17.1506153365  SOLV      8841            0.0000000000
     26638      8853  TIP3      OH2            -1.6822703985       10.3883242534       17.2582753365  SOLV      8842            0.0000000000
     26639      8853  TIP3      H1             -0.7683503985       10.4672142534       17.5316653365  SOLV      8842            0.0000000000
     26640      8853  TIP3      H2             -1.6749603985        9.7012842534       16.5918353365  SOLV      8842            0.0000000000
     26641      8854  TIP3      OH2            -3.0332103985       15.7811742534       22.3356653365  SOLV      8843            0.0000000000
     26642      8854  TIP3      H1             -3.6805003985       15.3193442534       21.8027853365  SOLV      8843            0.0000000000
     26643      8854  TIP3      H2             -2.6787503985       15.1095042534       22.9182853365  SOLV      8843            0.0000000000
     26644      8855  TIP3      OH2            -2.1632903985       13.8618742534       24.1402853365  SOLV      8844            0.0000000000
     26645      8855  TIP3      H1             -2.4976103985       12.9816042534       24.3123053365  SOLV      8844            0.0000000000
     26646      8855  TIP3      H2             -1.9410503985       14.2073742534       25.0048453365  SOLV      8844            0.0000000000
     26647      8856  TIP3      OH2            15.3851896015       14.6715142534       27.1207653365  SOLV      8845            0.0000000000
     26648      8856  TIP3      H1             15.3638596015       14.8563542534       28.0597053365  SOLV      8845            0.0000000000
     26649      8856  TIP3      H2             16.0758096015       15.2399142534       26.7799053365  SOLV      8845            0.0000000000
     26650      8857  TIP3      OH2            14.9484796015       14.2386242534       30.0426753365  SOLV      8846            0.0000000000
     26651      8857  TIP3      H1             14.4613496015       13.5030342534       29.6714153365  SOLV      8846            0.0000000000
     26652      8857  TIP3      H2             15.4977496015       13.8450142534       30.7206153365  SOLV      8846            0.0000000000
     26653      8858  TIP3      OH2            14.7001796015        8.2848042534       20.1949553365  SOLV      8847            0.0000000000
     26654      8858  TIP3      H1             15.5503196015        8.7058942534       20.3221153365  SOLV      8847            0.0000000000
     26655      8858  TIP3      H2             14.7056896015        7.5448142534       20.8020953365  SOLV      8847            0.0000000000
     26656      8859  TIP3      OH2            15.0947396015        6.3385442534       22.0185253365  SOLV      8848            0.0000000000
     26657      8859  TIP3      H1             14.3681996015        5.8588042534       22.4162853365  SOLV      8848            0.0000000000
     26658      8859  TIP3      H2             15.6760696015        6.5440142534       22.7506853365  SOLV      8848            0.0000000000
     26659      8860  TIP3      OH2            14.8538596015        9.1232942534       26.9662853365  SOLV      8849            0.0000000000
     26660      8860  TIP3      H1             15.6872796015        8.7452942534       26.6856453365  SOLV      8849            0.0000000000
     26661      8860  TIP3      H2             14.9658896015       10.0664142534       26.8471953365  SOLV      8849            0.0000000000
     26662      8861  TIP3      OH2            13.3400896015       12.0010442534       29.2731253365  SOLV      8850            0.0000000000
     26663      8861  TIP3      H1             12.6926196015       12.3261942534       29.8986453365  SOLV      8850            0.0000000000
     26664      8861  TIP3      H2             12.8224896015       11.5608142534       28.5989553365  SOLV      8850            0.0000000000
     26665      8862  TIP3      OH2            15.3630496015        6.2393942534       18.4096553365  SOLV      8851            0.0000000000
     26666      8862  TIP3      H1             14.8411596015        6.5958042534       17.6907453365  SOLV      8851            0.0000000000
     26667      8862  TIP3      H2             15.3299696015        6.9141742534       19.0877453365  SOLV      8851            0.0000000000
     26668      8863  TIP3      OH2            13.7119496015        3.4789542534       16.9603653365  SOLV      8852            0.0000000000
     26669      8863  TIP3      H1             13.8083896015        4.1456542534       16.2803353365  SOLV      8852            0.0000000000
     26670      8863  TIP3      H2             13.5719096015        2.6635842534       16.4789153365  SOLV      8852            0.0000000000
     26671      8864  TIP3      OH2            12.8814196015        4.8591942534       22.5813953365  SOLV      8853            0.0000000000
     26672      8864  TIP3      H1             12.7312996015        3.9140542534       22.5611753365  SOLV      8853            0.0000000000
     26673      8864  TIP3      H2             12.5278696015        5.1403342534       23.4253053365  SOLV      8853            0.0000000000
     26674      8865  TIP3      OH2            -2.0833403985        6.9374142534       26.5917753365  SOLV      8854            0.0000000000
     26675      8865  TIP3      H1             -1.8990503985        6.8555842534       25.6560653365  SOLV      8854            0.0000000000
     26676      8865  TIP3      H2             -1.2340503985        6.8131142534       27.0154153365  SOLV      8854            0.0000000000
     26677      8866  TIP3      OH2            13.7377096015        6.8295242534       32.2202253365  SOLV      8855            0.0000000000
     26678      8866  TIP3      H1             14.3204396015        6.0947542534       32.4119453365  SOLV      8855            0.0000000000
     26679      8866  TIP3      H2             14.3016396015        7.6015542534       32.2668053365  SOLV      8855            0.0000000000
     26680      8867  TIP3      OH2            15.2344196015        4.7321042534       32.9047653365  SOLV      8856            0.0000000000
     26681      8867  TIP3      H1             14.3710896015        4.3533142534       32.7392353365  SOLV      8856            0.0000000000
     26682      8867  TIP3      H2             15.8387896015        3.9935842534       32.8303453365  SOLV      8856            0.0000000000
     26683      8868  TIP3      OH2            12.9593296015        0.8869342534       16.0779153365  SOLV      8857            0.0000000000
     26684      8868  TIP3      H1             13.5699096015        0.5156142534       16.7147353365  SOLV      8857            0.0000000000
     26685      8868  TIP3      H2             12.1224796015        0.4656242534       16.2739153365  SOLV      8857            0.0000000000
     26686      8869  TIP3      OH2            12.5918996015        2.4417742534       21.0439053365  SOLV      8858            0.0000000000
     26687      8869  TIP3      H1             12.8716096015        1.5348142534       21.1680753365  SOLV      8858            0.0000000000
     26688      8869  TIP3      H2             13.3510696015        2.8759242534       20.6548253365  SOLV      8858            0.0000000000
     26689      8870  TIP3      OH2            13.2037296015        3.0235142534       26.4797953365  SOLV      8859            0.0000000000
     26690      8870  TIP3      H1             14.1365296015        3.2355042534       26.4453953365  SOLV      8859            0.0000000000
     26691      8870  TIP3      H2             12.9684796015        3.1247242534       27.4020953365  SOLV      8859            0.0000000000
     26692      8871  TIP3      OH2            13.2329196015        3.7600442534       29.2557353365  SOLV      8860            0.0000000000
     26693      8871  TIP3      H1             12.3900496015        4.0280842534       29.6217153365  SOLV      8860            0.0000000000
     26694      8871  TIP3      H2             13.6753496015        4.5822342534       29.0448453365  SOLV      8860            0.0000000000
     26695      8872  TIP3      OH2            -2.4858603985        2.2079142534       32.7326553365  SOLV      8861            0.0000000000
     26696      8872  TIP3      H1             -1.5663703985        2.0857442534       32.9689653365  SOLV      8861            0.0000000000
     26697      8872  TIP3      H2             -2.9354103985        1.4578842534       33.1220053365  SOLV      8861            0.0000000000
     26698      8873  TIP3      OH2            15.5160796015       -2.2599357466       34.6092353365  SOLV      8862            0.0000000000
     26699      8873  TIP3      H1             15.8657796015       -2.9135857466       34.0037053365  SOLV      8862            0.0000000000
     26700      8873  TIP3      H2             15.6630296015       -1.4225257466       34.1694953365  SOLV      8862            0.0000000000
     26701      8874  TIP3      OH2            13.2053796015       -0.2952957466       21.0921053365  SOLV      8863            0.0000000000
     26702      8874  TIP3      H1             13.3878796015       -0.7441457466       21.9176053365  SOLV      8863            0.0000000000
     26703      8874  TIP3      H2             12.6056696015       -0.8798557466       20.6285653365  SOLV      8863            0.0000000000
     26704      8875  TIP3      OH2            -1.2646103985        0.5200742534       25.6239453365  SOLV      8864            0.0000000000
     26705      8875  TIP3      H1             -0.8194503985       -0.2716757466       25.9259153365  SOLV      8864            0.0000000000
     26706      8875  TIP3      H2             -0.7983103985        1.2365942534       26.0545053365  SOLV      8864            0.0000000000
     26707      8876  TIP3      OH2            -2.9605803985        3.5193742534       26.6929653365  SOLV      8865            0.0000000000
     26708      8876  TIP3      H1             -2.4686003985        3.2984242534       25.9021653365  SOLV      8865            0.0000000000
     26709      8876  TIP3      H2             -2.5984903985        4.3597142534       26.9739153365  SOLV      8865            0.0000000000
     26710      8877  TIP3      OH2            15.0357996015       -0.1504757466       32.9583653365  SOLV      8866            0.0000000000
     26711      8877  TIP3      H1             14.1183696015        0.1202342534       32.9227153365  SOLV      8866            0.0000000000
     26712      8877  TIP3      H2             15.1587396015       -0.6856357466       32.1743353365  SOLV      8866            0.0000000000
     26713      8878  TIP3      OH2            15.0719996015       -0.2274857466       17.6201353365  SOLV      8867            0.0000000000
     26714      8878  TIP3      H1             15.4842596015       -0.9489157466       17.1449353365  SOLV      8867            0.0000000000
     26715      8878  TIP3      H2             15.7536496015        0.4419742534       17.6785653365  SOLV      8867            0.0000000000
     26716      8879  TIP3      OH2            -2.6469303985       -0.2227157466       20.7472053365  SOLV      8868            0.0000000000
     26717      8879  TIP3      H1             -3.5720903985       -0.0140557466       20.6177553365  SOLV      8868            0.0000000000
     26718      8879  TIP3      H2             -2.1929403985        0.2613642534       20.0574353365  SOLV      8868            0.0000000000
     26719      8880  TIP3      OH2            12.1237896015       14.7614542534       22.6929453365  SOLV      8869            0.0000000000
     26720      8880  TIP3      H1             12.7760796015       14.4136642534       22.0848553365  SOLV      8869            0.0000000000
     26721      8880  TIP3      H2             12.6341696015       15.2497742534       23.3389153365  SOLV      8869            0.0000000000
     26722      8881  TIP3      OH2            -2.6833903985       -1.4848157466       29.0914553365  SOLV      8870            0.0000000000
     26723      8881  TIP3      H1             -3.3483403985       -1.7307857466       29.7345453365  SOLV      8870            0.0000000000
     26724      8881  TIP3      H2             -3.1262603985       -0.8627757466       28.5142553365  SOLV      8870            0.0000000000
     26725      8882  TIP3      OH2            -0.4914603985       11.6905942534       33.2360353365  SOLV      8871            0.0000000000
     26726      8882  TIP3      H1             -1.3122103985       11.8652442534       32.7755053365  SOLV      8871            0.0000000000
     26727      8882  TIP3      H2             -0.7436803985       11.6170642534       34.1564753365  SOLV      8871            0.0000000000
     26728      8883  TIP3      OH2             2.4628296015       12.6647142534       29.4944353365  SOLV      8872            0.0000000000
     26729      8883  TIP3      H1              2.0379396015       13.4745642534       29.2118953365  SOLV      8872            0.0000000000
     26730      8883  TIP3      H2              3.3671096015       12.7501242534       29.1924153365  SOLV      8872            0.0000000000
     26731      8884  TIP3      OH2             6.7739696015       14.0637142534       32.4538053365  SOLV      8873            0.0000000000
     26732      8884  TIP3      H1              6.9587196015       13.7303242534       33.3318353365  SOLV      8873            0.0000000000
     26733      8884  TIP3      H2              7.6204196015       14.3735742534       32.1317253365  SOLV      8873            0.0000000000
     26734      8885  TIP3      OH2             9.1190096015       15.3496042534       31.6979453365  SOLV      8874            0.0000000000
     26735      8885  TIP3      H1              9.7958996015       14.7168342534       31.4578653365  SOLV      8874            0.0000000000
     26736      8885  TIP3      H2              9.4408896015       15.7506542534       32.5052753365  SOLV      8874            0.0000000000
     26737      8886  TIP3      OH2            14.0363896015       -2.0608457466       30.7774453365  SOLV      8875            0.0000000000
     26738      8886  TIP3      H1             13.2237396015       -1.7358157466       30.3899153365  SOLV      8875            0.0000000000
     26739      8886  TIP3      H2             14.2692396015       -2.8209957466       30.2443553365  SOLV      8875            0.0000000000
     26740      8887  TIP3      OH2            -0.1355003985       15.9211042534       29.5419653365  SOLV      8876            0.0000000000
     26741      8887  TIP3      H1             -0.8558603985       16.3612042534       29.0907353365  SOLV      8876            0.0000000000
     26742      8887  TIP3      H2             -0.5011003985       15.6705742534       30.3903653365  SOLV      8876            0.0000000000
     26743      8888  TIP3      OH2             2.3317596015       15.5214942534       28.5716853365  SOLV      8877            0.0000000000
     26744      8888  TIP3      H1              1.4669796015       15.5933442534       28.9756953365  SOLV      8877            0.0000000000
     26745      8888  TIP3      H2              2.2766596015       16.0682242534       27.7879353365  SOLV      8877            0.0000000000
     26746      8889  TIP3      OH2             7.0423196015       15.4093842534       27.7472853365  SOLV      8878            0.0000000000
     26747      8889  TIP3      H1              6.5857196015       15.9383542534       27.0931253365  SOLV      8878            0.0000000000
     26748      8889  TIP3      H2              7.2051196015       16.0125242534       28.4725153365  SOLV      8878            0.0000000000
     26749      8890  TIP3      OH2             9.3699496015       14.2873442534       28.6923153365  SOLV      8879            0.0000000000
     26750      8890  TIP3      H1              8.4653196015       14.4523642534       28.4265253365  SOLV      8879            0.0000000000
     26751      8890  TIP3      H2              9.7988096015       15.1405642534       28.6266553365  SOLV      8879            0.0000000000
     26752      8891  TIP3      OH2            11.9741396015       15.8572542534       28.9870953365  SOLV      8880            0.0000000000
     26753      8891  TIP3      H1             11.7923396015       16.7731442534       28.7765853365  SOLV      8880            0.0000000000
     26754      8891  TIP3      H2             12.1509196015       15.4469642534       28.1405553365  SOLV      8880            0.0000000000
     26755      8892  TIP3      OH2            -0.7206903985       14.5443542534       26.4521453365  SOLV      8881            0.0000000000
     26756      8892  TIP3      H1             -0.7390903985       14.1188642534       27.3093753365  SOLV      8881            0.0000000000
     26757      8892  TIP3      H2              0.0840996015       14.2258542534       26.0433653365  SOLV      8881            0.0000000000
     26758      8893  TIP3      OH2             1.4206196015       13.2542242534       25.1071353365  SOLV      8882            0.0000000000
     26759      8893  TIP3      H1              1.2016896015       12.3379642534       25.2767353365  SOLV      8882            0.0000000000
     26760      8893  TIP3      H2              2.2448396015       13.3942642534       25.5732753365  SOLV      8882            0.0000000000
     26761      8894  TIP3      OH2             3.9578696015       13.7241542534       25.9559353365  SOLV      8883            0.0000000000
     26762      8894  TIP3      H1              4.1704396015       12.8360542534       25.6690253365  SOLV      8883            0.0000000000
     26763      8894  TIP3      H2              4.0223796015       13.6899242534       26.9103353365  SOLV      8883            0.0000000000
     26764      8895  TIP3      OH2             7.4662396015       -0.6117857466       25.1002653365  SOLV      8884            0.0000000000
     26765      8895  TIP3      H1              6.7919196015       -1.2412257466       25.3558453365  SOLV      8884            0.0000000000
     26766      8895  TIP3      H2              8.0301596015       -1.0958957466       24.4970553365  SOLV      8884            0.0000000000
     26767      8896  TIP3      OH2            12.6089596015       -2.5043857466       25.2129753365  SOLV      8885            0.0000000000
     26768      8896  TIP3      H1             13.2127196015       -1.9568457466       24.7110753365  SOLV      8885            0.0000000000
     26769      8896  TIP3      H2             11.7391596015       -2.1853457466       24.9723853365  SOLV      8885            0.0000000000
     26770      8897  TIP3      OH2            14.3359996015       -1.3655157466       23.5460653365  SOLV      8886            0.0000000000
     26771      8897  TIP3      H1             14.9477496015       -1.8799457466       23.0194253365  SOLV      8886            0.0000000000
     26772      8897  TIP3      H2             14.7183396015       -0.4883057466       23.5695053365  SOLV      8886            0.0000000000
     26773      8898  TIP3      OH2            -0.2070103985       -1.9777557466       22.9222553365  SOLV      8887            0.0000000000
     26774      8898  TIP3      H1             -0.9840303985       -2.2122657466       22.4148453365  SOLV      8887            0.0000000000
     26775      8898  TIP3      H2              0.3233496015       -2.7745457466       22.9310553365  SOLV      8887            0.0000000000
     26776      8899  TIP3      OH2            -1.3706703985       -2.1799457466       18.7258653365  SOLV      8888            0.0000000000
     26777      8899  TIP3      H1             -0.9316003985       -1.5688957466       18.1342153365  SOLV      8888            0.0000000000
     26778      8899  TIP3      H2             -2.0044303985       -1.6415357466       19.1998653365  SOLV      8888            0.0000000000
     26779      8900  TIP3      OH2             4.3722496015       -2.0510457466       22.7355653365  SOLV      8889            0.0000000000
     26780      8900  TIP3      H1              5.2465896015       -1.6626157466       22.7059953365  SOLV      8889            0.0000000000
     26781      8900  TIP3      H2              4.2363296015       -2.2662657466       23.6582853365  SOLV      8889            0.0000000000
     26782      8901  TIP3      OH2             9.9290896015       -2.0210657466       24.3847353365  SOLV      8890            0.0000000000
     26783      8901  TIP3      H1             10.0052496015       -1.9259057466       23.4353353365  SOLV      8890            0.0000000000
     26784      8901  TIP3      H2              9.6540096015       -2.9287757466       24.5136453365  SOLV      8890            0.0000000000
     26785      8902  TIP3      OH2            11.2823496015       -1.9952857466       20.0772353365  SOLV      8891            0.0000000000
     26786      8902  TIP3      H1             10.5794596015       -1.3803657466       19.8673753365  SOLV      8891            0.0000000000
     26787      8902  TIP3      H2             10.8374896015       -2.8326157466       20.2083253365  SOLV      8891            0.0000000000
     26788      8903  TIP3      OH2            -1.4697203985       13.7682742534       19.6233753365  SOLV      8892            0.0000000000
     26789      8903  TIP3      H1             -2.1547303985       13.7301642534       18.9558853365  SOLV      8892            0.0000000000
     26790      8903  TIP3      H2             -1.4660003985       14.6810342534       19.9115853365  SOLV      8892            0.0000000000
     26791      8904  TIP3      OH2             0.4902396015       -0.2637957466       17.1682753365  SOLV      8893            0.0000000000
     26792      8904  TIP3      H1              0.9815796015       -0.8935557466       16.6408253365  SOLV      8893            0.0000000000
     26793      8904  TIP3      H2              1.1138696015        0.0321442534       17.8313953365  SOLV      8893            0.0000000000
     26794      8905  TIP3      OH2             5.5162496015        0.0293542534       19.6253253365  SOLV      8894            0.0000000000
     26795      8905  TIP3      H1              5.6943796015       -0.6173257466       20.3081853365  SOLV      8894            0.0000000000
     26796      8905  TIP3      H2              5.4628696015        0.8631242534       20.0924353365  SOLV      8894            0.0000000000
     26797      8906  TIP3      OH2             7.3946296015       14.9777642534       18.0209953365  SOLV      8895            0.0000000000
     26798      8906  TIP3      H1              8.2606496015       15.3445042534       17.8428153365  SOLV      8895            0.0000000000
     26799      8906  TIP3      H2              7.1479096015       14.5385642534       17.2070753365  SOLV      8895            0.0000000000
     26800      8907  TIP3      OH2            14.1035896015       14.5407942534       20.7001053365  SOLV      8896            0.0000000000
     26801      8907  TIP3      H1             13.9092996015       13.7930042534       20.1350653365  SOLV      8896            0.0000000000
     26802      8907  TIP3      H2             14.0645996015       15.2988042534       20.1168953365  SOLV      8896            0.0000000000
     26803      8908  TIP3      OH2            -0.2492103985       -1.4635657466       32.4398753365  SOLV      8897            0.0000000000
     26804      8908  TIP3      H1             -0.6153903985       -2.2293057466       32.8823453365  SOLV      8897            0.0000000000
     26805      8908  TIP3      H2              0.6636396015       -1.4345457466       32.7263853365  SOLV      8897            0.0000000000
     26806      8909  TIP3      OH2             1.7238696015       -2.1131257466       33.9755853365  SOLV      8898            0.0000000000
     26807      8909  TIP3      H1              2.6222296015       -2.3871057466       33.7909253365  SOLV      8898            0.0000000000
     26808      8909  TIP3      H2              1.3371796015       -2.8555257466       34.4398453365  SOLV      8898            0.0000000000
     26809      8910  TIP3      OH2             0.3483996015       14.6883542534       16.6485853365  SOLV      8899            0.0000000000
     26810      8910  TIP3      H1              0.0808596015       14.9746442534       17.5218953365  SOLV      8899            0.0000000000
     26811      8910  TIP3      H2              1.1196596015       14.1422742534       16.8008353365  SOLV      8899            0.0000000000
     26812      8911  TIP3      OH2            10.1450996015       -2.7805957466       34.1578653365  SOLV      8900            0.0000000000
     26813      8911  TIP3      H1             10.2218196015       -3.2065257466       35.0116353365  SOLV      8900            0.0000000000
     26814      8911  TIP3      H2             11.0387596015       -2.7671257466       33.8152153365  SOLV      8900            0.0000000000
     26815      8912  TIP3      OH2            27.7272496015        7.1784742534       22.8810053365  SOLV      8901            0.0000000000
     26816      8912  TIP3      H1             27.8163596015        8.1222942534       22.7487153365  SOLV      8901            0.0000000000
     26817      8912  TIP3      H2             27.0890096015        6.9031142534       22.2229453365  SOLV      8901            0.0000000000
     26818      8913  TIP3      OH2            26.6603796015        6.4335442534       26.2998253365  SOLV      8902            0.0000000000
     26819      8913  TIP3      H1             26.6221296015        5.7871742534       27.0047853365  SOLV      8902            0.0000000000
     26820      8913  TIP3      H2             26.3380296015        5.9669842534       25.5286953365  SOLV      8902            0.0000000000
     26821      8914  TIP3      OH2            19.0288796015        6.0477542534       27.8928153365  SOLV      8903            0.0000000000
     26822      8914  TIP3      H1             19.0700896015        5.4220842534       28.6160553365  SOLV      8903            0.0000000000
     26823      8914  TIP3      H2             19.7316496015        6.6716142534       28.0748553365  SOLV      8903            0.0000000000
     26824      8915  TIP3      OH2            19.9521896015       10.4976442534       26.4277253365  SOLV      8904            0.0000000000
     26825      8915  TIP3      H1             19.5827096015        9.6956942534       26.0581553365  SOLV      8904            0.0000000000
     26826      8915  TIP3      H2             20.8932996015       10.3291342534       26.4740653365  SOLV      8904            0.0000000000
     26827      8916  TIP3      OH2            16.5622396015        4.1579042534       21.8206053365  SOLV      8905            0.0000000000
     26828      8916  TIP3      H1             16.1145796015        5.0037742534       21.8022553365  SOLV      8905            0.0000000000
     26829      8916  TIP3      H2             16.0013596015        3.5783242534       21.3051153365  SOLV      8905            0.0000000000
     26830      8917  TIP3      OH2            17.2728496015        6.3198642534       23.9464053365  SOLV      8906            0.0000000000
     26831      8917  TIP3      H1             17.4861996015        5.5500242534       24.4737053365  SOLV      8906            0.0000000000
     26832      8917  TIP3      H2             18.0106096015        6.4095342534       23.3431653365  SOLV      8906            0.0000000000
     26833      8918  TIP3      OH2            25.0498196015        8.8656842534       26.7059253365  SOLV      8907            0.0000000000
     26834      8918  TIP3      H1             25.3536096015        8.1798242534       26.1113353365  SOLV      8907            0.0000000000
     26835      8918  TIP3      H2             25.7712196015        8.9845542534       27.3237253365  SOLV      8907            0.0000000000
     26836      8919  TIP3      OH2            28.1905196015        3.2599242534       27.0334053365  SOLV      8908            0.0000000000
     26837      8919  TIP3      H1             28.3331096015        2.3136242534       27.0535653365  SOLV      8908            0.0000000000
     26838      8919  TIP3      H2             28.0844196015        3.4669042534       26.1048953365  SOLV      8908            0.0000000000
     26839      8920  TIP3      OH2            21.3453496015        1.3615642534       24.3058853365  SOLV      8909            0.0000000000
     26840      8920  TIP3      H1             21.3884596015        2.2214142534       23.8875153365  SOLV      8909            0.0000000000
     26841      8920  TIP3      H2             20.8877596015        0.8090342534       23.6722053365  SOLV      8909            0.0000000000
     26842      8921  TIP3      OH2            29.0676196015        1.4921242534       22.7067153365  SOLV      8910            0.0000000000
     26843      8921  TIP3      H1             29.7140496015        1.1634442534       23.3314753365  SOLV      8910            0.0000000000
     26844      8921  TIP3      H2             29.5775596015        2.0100242534       22.0838553365  SOLV      8910            0.0000000000
     26845      8922  TIP3      OH2            17.9654996015        3.7581442534       25.0680253365  SOLV      8911            0.0000000000
     26846      8922  TIP3      H1             18.6191596015        3.2083142534       25.5000353365  SOLV      8911            0.0000000000
     26847      8922  TIP3      H2             17.9894296015        3.4840442534       24.1512253365  SOLV      8911            0.0000000000
     26848      8923  TIP3      OH2            23.1219496015        5.3082742534       24.2831753365  SOLV      8912            0.0000000000
     26849      8923  TIP3      H1             23.7380496015        4.7818142534       24.7925753365  SOLV      8912            0.0000000000
     26850      8923  TIP3      H2             22.5358296015        4.6681442534       23.8795353365  SOLV      8912            0.0000000000
     26851      8924  TIP3      OH2            20.1555396015        0.2794042534       28.3799653365  SOLV      8913            0.0000000000
     26852      8924  TIP3      H1             19.9367096015        0.8094642534       27.6135653365  SOLV      8913            0.0000000000
     26853      8924  TIP3      H2             19.4876296015        0.5059542534       29.0271053365  SOLV      8913            0.0000000000
     26854      8925  TIP3      OH2            27.5245196015        9.7795142534       21.9238753365  SOLV      8914            0.0000000000
     26855      8925  TIP3      H1             27.2290296015        9.4567442534       21.0725653365  SOLV      8914            0.0000000000
     26856      8925  TIP3      H2             27.2002996015       10.6791842534       21.9651353365  SOLV      8914            0.0000000000
     26857      8926  TIP3      OH2            22.7246796015        7.9549742534       28.6673353365  SOLV      8915            0.0000000000
     26858      8926  TIP3      H1             21.9845896015        8.5531242534       28.7708553365  SOLV      8915            0.0000000000
     26859      8926  TIP3      H2             23.4386296015        8.5089342534       28.3516953365  SOLV      8915            0.0000000000
     26860      8927  TIP3      OH2            30.8314596015        0.7830542534       24.6873053365  SOLV      8916            0.0000000000
     26861      8927  TIP3      H1             30.6162596015        0.0173942534       25.2199053365  SOLV      8916            0.0000000000
     26862      8927  TIP3      H2             31.4871996015        1.2555142534       25.2001553365  SOLV      8916            0.0000000000
     26863      8928  TIP3      OH2            19.7492696015        2.1715842534       26.3321853365  SOLV      8917            0.0000000000
     26864      8928  TIP3      H1             20.3628996015        2.8043442534       26.7054253365  SOLV      8917            0.0000000000
     26865      8928  TIP3      H2             20.2613396015        1.6990842534       25.6758753365  SOLV      8917            0.0000000000
     26866      8929  TIP3      OH2            17.2531996015        9.5900642534       20.2364153365  SOLV      8918            0.0000000000
     26867      8929  TIP3      H1             16.9812896015        9.8191642534       19.3477053365  SOLV      8918            0.0000000000
     26868      8929  TIP3      H2             17.2987696015       10.4279442534       20.6969453365  SOLV      8918            0.0000000000
     26869      8930  TIP3      OH2            24.1820096015       -2.4150857466       25.8324553365  SOLV      8919            0.0000000000
     26870      8930  TIP3      H1             24.0644296015       -3.3634857466       25.7782853365  SOLV      8919            0.0000000000
     26871      8930  TIP3      H2             23.3270196015       -2.0824757466       26.1055653365  SOLV      8919            0.0000000000
     26872      8931  TIP3      OH2            30.2899396015       10.8938542534       22.0830853365  SOLV      8920            0.0000000000
     26873      8931  TIP3      H1             30.0324196015       10.2038642534       21.4716753365  SOLV      8920            0.0000000000
     26874      8931  TIP3      H2             30.3610196015       10.4509742534       22.9286753365  SOLV      8920            0.0000000000
     26875      8932  TIP3      OH2            26.4484996015        6.4224742534       20.3330353365  SOLV      8921            0.0000000000
     26876      8932  TIP3      H1             25.7370496015        6.9574442534       19.9810853365  SOLV      8921            0.0000000000
     26877      8932  TIP3      H2             27.1394596015        6.4776842534       19.6729253365  SOLV      8921            0.0000000000
     26878      8933  TIP3      OH2            26.5024196015        4.8799042534       17.3715353365  SOLV      8922            0.0000000000
     26879      8933  TIP3      H1             27.2034096015        4.9025942534       18.0229353365  SOLV      8922            0.0000000000
     26880      8933  TIP3      H2             26.8047096015        4.2518742534       16.7154653365  SOLV      8922            0.0000000000
     26881      8934  TIP3      OH2            29.8542696015        6.6318042534       21.2846253365  SOLV      8923            0.0000000000
     26882      8934  TIP3      H1             29.1223696015        6.8601742534       21.8576853365  SOLV      8923            0.0000000000
     26883      8934  TIP3      H2             30.3014896015        5.9180742534       21.7393753365  SOLV      8923            0.0000000000
     26884      8935  TIP3      OH2            22.8663896015       10.6904842534       25.8483453365  SOLV      8924            0.0000000000
     26885      8935  TIP3      H1             22.7715196015       10.1117942534       25.0918053365  SOLV      8924            0.0000000000
     26886      8935  TIP3      H2             23.5957496015       10.3190542534       26.3446253365  SOLV      8924            0.0000000000
     26887      8936  TIP3      OH2            21.8661896015        6.0309842534       26.8006253365  SOLV      8925            0.0000000000
     26888      8936  TIP3      H1             22.4314396015        6.1524042534       26.0377453365  SOLV      8925            0.0000000000
     26889      8936  TIP3      H2             22.1850796015        6.6684842534       27.4394753365  SOLV      8925            0.0000000000
     26890      8937  TIP3      OH2            28.7252196015        5.7940942534       18.9697453365  SOLV      8926            0.0000000000
     26891      8937  TIP3      H1             29.3047696015        5.9441242534       19.7166353365  SOLV      8926            0.0000000000
     26892      8937  TIP3      H2             29.1392196015        6.2648342534       18.2463853365  SOLV      8926            0.0000000000
     26893      8938  TIP3      OH2            19.6662496015        6.6283642534       30.7463853365  SOLV      8927            0.0000000000
     26894      8938  TIP3      H1             19.7365696015        7.2790442534       31.4448853365  SOLV      8927            0.0000000000
     26895      8938  TIP3      H2             18.7754696015        6.7311142534       30.4114753365  SOLV      8927            0.0000000000
     26896      8939  TIP3      OH2            26.4517096015       12.5309442534       22.4050553365  SOLV      8928            0.0000000000
     26897      8939  TIP3      H1             26.9254696015       12.8265742534       23.1824753365  SOLV      8928            0.0000000000
     26898      8939  TIP3      H2             25.8886396015       13.2691042534       22.1720153365  SOLV      8928            0.0000000000
     26899      8940  TIP3      OH2            32.4240596015       -2.4558657466       18.7827153365  SOLV      8929            0.0000000000
     26900      8940  TIP3      H1             31.5241296015       -2.3169657466       19.0777753365  SOLV      8929            0.0000000000
     26901      8940  TIP3      H2             32.6758996015       -1.6244057466       18.3808853365  SOLV      8929            0.0000000000
     26902      8941  TIP3      OH2            33.6131996015       11.9103742534       17.1591053365  SOLV      8930            0.0000000000
     26903      8941  TIP3      H1             33.6865496015       12.8493942534       17.3296353365  SOLV      8930            0.0000000000
     26904      8941  TIP3      H2             34.5187096015       11.6052342534       17.1028353365  SOLV      8930            0.0000000000
     26905      8942  TIP3      OH2            16.5829196015        8.6947742534       29.5713853365  SOLV      8931            0.0000000000
     26906      8942  TIP3      H1             16.0817596015        8.6667142534       28.7563553365  SOLV      8931            0.0000000000
     26907      8942  TIP3      H2             16.5882896015        7.7890942534       29.8811153365  SOLV      8931            0.0000000000
     26908      8943  TIP3      OH2            16.3331896015       11.4751542534       26.4554053365  SOLV      8932            0.0000000000
     26909      8943  TIP3      H1             17.2792496015       11.3308542534       26.4363553365  SOLV      8932            0.0000000000
     26910      8943  TIP3      H2             16.2208196015       12.2594342534       26.9925253365  SOLV      8932            0.0000000000
     26911      8944  TIP3      OH2            25.9240196015       15.4874142534       20.8199753365  SOLV      8933            0.0000000000
     26912      8944  TIP3      H1             25.8486196015       15.3661342534       19.8734953365  SOLV      8933            0.0000000000
     26913      8944  TIP3      H2             25.9568896015       16.4366842534       20.9384353365  SOLV      8933            0.0000000000
     26914      8945  TIP3      OH2            19.5773996015       14.2761142534       22.6008753365  SOLV      8934            0.0000000000
     26915      8945  TIP3      H1             19.7294396015       13.9281542534       23.4795253365  SOLV      8934            0.0000000000
     26916      8945  TIP3      H2             18.7264396015       13.9198442534       22.3455953365  SOLV      8934            0.0000000000
     26917      8946  TIP3      OH2            29.0256196015       14.6414342534       17.8222153365  SOLV      8935            0.0000000000
     26918      8946  TIP3      H1             29.4004596015       13.8970442534       17.3514753365  SOLV      8935            0.0000000000
     26919      8946  TIP3      H2             29.0299896015       14.3714942534       18.7405453365  SOLV      8935            0.0000000000
     26920      8947  TIP3      OH2            28.6944296015       14.5671442534       20.5714353365  SOLV      8936            0.0000000000
     26921      8947  TIP3      H1             27.7594096015       14.6673342534       20.7501353365  SOLV      8936            0.0000000000
     26922      8947  TIP3      H2             28.9746196015       13.8577442534       21.1497553365  SOLV      8936            0.0000000000
     26923      8948  TIP3      OH2            21.4507696015       -1.5116357466       26.6100853365  SOLV      8937            0.0000000000
     26924      8948  TIP3      H1             20.5891396015       -1.5988157466       26.2023753365  SOLV      8937            0.0000000000
     26925      8948  TIP3      H2             21.4283396015       -0.6556257466       27.0378453365  SOLV      8937            0.0000000000
     26926      8949  TIP3      OH2            26.1135496015       -1.7895957466       29.9847853365  SOLV      8938            0.0000000000
     26927      8949  TIP3      H1             26.5338596015       -2.2048857466       30.7378453365  SOLV      8938            0.0000000000
     26928      8949  TIP3      H2             25.1805096015       -1.9682657466       30.1019853365  SOLV      8938            0.0000000000
     26929      8950  TIP3      OH2            30.2025296015        6.8269242534       16.5995353365  SOLV      8939            0.0000000000
     26930      8950  TIP3      H1             30.2446096015        6.6043142534       15.6695353365  SOLV      8939            0.0000000000
     26931      8950  TIP3      H2             31.0517396015        7.2256342534       16.7895253365  SOLV      8939            0.0000000000
     26932      8951  TIP3      OH2            25.7752796015        0.7027442534       17.2698653365  SOLV      8940            0.0000000000
     26933      8951  TIP3      H1             25.5217596015        0.7219042534       18.1926753365  SOLV      8940            0.0000000000
     26934      8951  TIP3      H2             25.5184896015       -0.1687157466       16.9684853365  SOLV      8940            0.0000000000
     26935      8952  TIP3      OH2            21.5417796015        3.4538142534       27.7051053365  SOLV      8941            0.0000000000
     26936      8952  TIP3      H1             20.8999896015        3.4135442534       28.4141153365  SOLV      8941            0.0000000000
     26937      8952  TIP3      H2             21.5789796015        4.3802842534       27.4674053365  SOLV      8941            0.0000000000
     26938      8953  TIP3      OH2            21.5386896015        3.6748242534       22.6171053365  SOLV      8942            0.0000000000
     26939      8953  TIP3      H1             20.6459796015        3.3344342534       22.5584853365  SOLV      8942            0.0000000000
     26940      8953  TIP3      H2             21.9893496015        3.2979142534       21.8614253365  SOLV      8942            0.0000000000
     26941      8954  TIP3      OH2            27.0742396015        4.0908542534       21.4341853365  SOLV      8943            0.0000000000
     26942      8954  TIP3      H1             26.6652696015        4.9057142534       21.1426653365  SOLV      8943            0.0000000000
     26943      8954  TIP3      H2             27.7948596015        3.9508642534       20.8198953365  SOLV      8943            0.0000000000
     26944      8955  TIP3      OH2            28.0790096015        3.5368942534       24.2481553365  SOLV      8944            0.0000000000
     26945      8955  TIP3      H1             27.8834596015        4.1425742534       23.5332153365  SOLV      8944            0.0000000000
     26946      8955  TIP3      H2             28.2602696015        2.7034142534       23.8137853365  SOLV      8944            0.0000000000
     26947      8956  TIP3      OH2            19.2918296015        3.7741642534       29.5723053365  SOLV      8945            0.0000000000
     26948      8956  TIP3      H1             19.2537696015        4.1743242534       30.4410153365  SOLV      8945            0.0000000000
     26949      8956  TIP3      H2             18.8009396015        2.9574042534       29.6625953365  SOLV      8945            0.0000000000
     26950      8957  TIP3      OH2            22.6575696015        1.1483942534       16.3709053365  SOLV      8946            0.0000000000
     26951      8957  TIP3      H1             22.2266396015        0.7034042534       17.1006453365  SOLV      8946            0.0000000000
     26952      8957  TIP3      H2             21.9394396015        1.5200242534       15.8586553365  SOLV      8946            0.0000000000
     26953      8958  TIP3      OH2            15.8999096015        0.8903442534       23.4227753365  SOLV      8947            0.0000000000
     26954      8958  TIP3      H1             16.5306796015        0.8615542534       24.1421653365  SOLV      8947            0.0000000000
     26955      8958  TIP3      H2             16.3493396015        0.4652142534       22.6923653365  SOLV      8947            0.0000000000
     26956      8959  TIP3      OH2            17.1741196015        1.6365442534       18.8468153365  SOLV      8948            0.0000000000
     26957      8959  TIP3      H1             17.6482896015        2.2275342534       18.2619053365  SOLV      8948            0.0000000000
     26958      8959  TIP3      H2             16.4567596015        2.1668342534       19.1938253365  SOLV      8948            0.0000000000
     26959      8960  TIP3      OH2            24.1202196015        1.1025742534       23.7035153365  SOLV      8949            0.0000000000
     26960      8960  TIP3      H1             23.2093296015        1.1592542534       23.9921153365  SOLV      8949            0.0000000000
     26961      8960  TIP3      H2             24.6255096015        1.0421242534       24.5142353365  SOLV      8949            0.0000000000
     26962      8961  TIP3      OH2            18.9485596015        2.7312042534       22.5302753365  SOLV      8950            0.0000000000
     26963      8961  TIP3      H1             18.0593596015        2.8307542534       22.1902353365  SOLV      8950            0.0000000000
     26964      8961  TIP3      H2             19.2450496015        1.8895042534       22.1840653365  SOLV      8950            0.0000000000
     26965      8962  TIP3      OH2            28.5254096015        0.3372042534       26.9676953365  SOLV      8951            0.0000000000
     26966      8962  TIP3      H1             27.8485696015        0.4685142534       27.6316653365  SOLV      8951            0.0000000000
     26967      8962  TIP3      H2             28.0398996015        0.1821542534       26.1574653365  SOLV      8951            0.0000000000
     26968      8963  TIP3      OH2            25.4401896015        3.8898742534       25.5904753365  SOLV      8952            0.0000000000
     26969      8963  TIP3      H1             26.0045296015        3.3435342534       25.0434353365  SOLV      8952            0.0000000000
     26970      8963  TIP3      H2             25.2925296015        3.3680642534       26.3792353365  SOLV      8952            0.0000000000
     26971      8964  TIP3      OH2            20.4421596015        0.0264842534       22.0089553365  SOLV      8953            0.0000000000
     26972      8964  TIP3      H1             20.1251096015       -0.8759857466       21.9734953365  SOLV      8953            0.0000000000
     26973      8964  TIP3      H2             21.2235696015        0.0282242534       21.4561153365  SOLV      8953            0.0000000000
     26974      8965  TIP3      OH2            24.0667796015        2.2784842534       28.0045153365  SOLV      8954            0.0000000000
     26975      8965  TIP3      H1             23.2313096015        2.7324342534       28.1147553365  SOLV      8954            0.0000000000
     26976      8965  TIP3      H2             24.5908396015        2.5543342534       28.7565053365  SOLV      8954            0.0000000000
     26977      8966  TIP3      OH2            24.6110396015        8.4912542534       19.6891553365  SOLV      8955            0.0000000000
     26978      8966  TIP3      H1             23.8661396015        7.9837842534       19.3669453365  SOLV      8955            0.0000000000
     26979      8966  TIP3      H2             24.4767596015        8.5400542534       20.6356353365  SOLV      8955            0.0000000000
     26980      8967  TIP3      OH2            28.5087196015        1.3052442534       17.8884153365  SOLV      8956            0.0000000000
     26981      8967  TIP3      H1             27.5701396015        1.4168042534       17.7372953365  SOLV      8956            0.0000000000
     26982      8967  TIP3      H2             28.8059296015        2.1619342534       18.1949853365  SOLV      8956            0.0000000000
     26983      8968  TIP3      OH2            29.2270696015        3.1725142534       19.5491553365  SOLV      8957            0.0000000000
     26984      8968  TIP3      H1             30.1189696015        3.0350142534       19.8682753365  SOLV      8957            0.0000000000
     26985      8968  TIP3      H2             29.2834296015        3.9631242534       19.0125053365  SOLV      8957            0.0000000000
     26986      8969  TIP3      OH2            19.7358696015        7.7862542534       25.4589453365  SOLV      8958            0.0000000000
     26987      8969  TIP3      H1             20.4805896015        7.7838242534       24.8575953365  SOLV      8958            0.0000000000
     26988      8969  TIP3      H2             19.8135296015        6.9626342534       25.9404553365  SOLV      8958            0.0000000000
     26989      8970  TIP3      OH2            26.7364496015        9.9496842534       18.7146153365  SOLV      8959            0.0000000000
     26990      8970  TIP3      H1             26.4412896015       10.7764742534       19.0960953365  SOLV      8959            0.0000000000
     26991      8970  TIP3      H2             26.0334496015        9.3303742534       18.9107553365  SOLV      8959            0.0000000000
     26992      8971  TIP3      OH2            16.7438396015        6.2469442534       30.7737953365  SOLV      8960            0.0000000000
     26993      8971  TIP3      H1             16.9666996015        5.8289042534       31.6055453365  SOLV      8960            0.0000000000
     26994      8971  TIP3      H2             16.1418496015        5.6344442534       30.3510753365  SOLV      8960            0.0000000000
     26995      8972  TIP3      OH2            34.1119396015        3.3819242534       19.2438253365  SOLV      8961            0.0000000000
     26996      8972  TIP3      H1             33.5575696015        2.9857242534       18.5715753365  SOLV      8961            0.0000000000
     26997      8972  TIP3      H2             34.2122996015        4.2924442534       18.9661553365  SOLV      8961            0.0000000000
     26998      8973  TIP3      OH2            32.4071096015       12.1679642534       19.7090353365  SOLV      8962            0.0000000000
     26999      8973  TIP3      H1             32.0342196015       11.3423442534       20.0180953365  SOLV      8962            0.0000000000
     27000      8973  TIP3      H2             32.6844596015       11.9849042534       18.8113753365  SOLV      8962            0.0000000000
     27001      8974  TIP3      OH2            22.1108096015       11.3040742534       22.8630953365  SOLV      8963            0.0000000000
     27002      8974  TIP3      H1             22.6380296015       12.0775142534       22.6629753365  SOLV      8963            0.0000000000
     27003      8974  TIP3      H2             21.2306596015       11.5289942534       22.5614953365  SOLV      8963            0.0000000000
     27004      8975  TIP3      OH2            17.8655796015        6.1664842534       17.4503353365  SOLV      8964            0.0000000000
     27005      8975  TIP3      H1             18.4815696015        6.7932042534       17.8298153365  SOLV      8964            0.0000000000
     27006      8975  TIP3      H2             17.0038396015        6.4824642534       17.7219853365  SOLV      8964            0.0000000000
     27007      8976  TIP3      OH2            23.5380396015        8.9670642534       22.4395253365  SOLV      8965            0.0000000000
     27008      8976  TIP3      H1             23.2970396015        9.8925042534       22.4810553365  SOLV      8965            0.0000000000
     27009      8976  TIP3      H2             22.7973996015        8.5081942534       22.8359153365  SOLV      8965            0.0000000000
     27010      8977  TIP3      OH2            22.2211196015       13.9888242534       21.9847453365  SOLV      8966            0.0000000000
     27011      8977  TIP3      H1             21.2711696015       14.0945642534       22.0360753365  SOLV      8966            0.0000000000
     27012      8977  TIP3      H2             22.5729296015       14.8095642534       22.3294953365  SOLV      8966            0.0000000000
     27013      8978  TIP3      OH2            29.7996696015       10.1445442534       17.5290953365  SOLV      8967            0.0000000000
     27014      8978  TIP3      H1             30.1529796015        9.7645242534       18.3334453365  SOLV      8967            0.0000000000
     27015      8978  TIP3      H2             28.8510196015       10.0510242534       17.6160253365  SOLV      8967            0.0000000000
     27016      8979  TIP3      OH2            34.3031096015       14.6237942534       17.7301153365  SOLV      8968            0.0000000000
     27017      8979  TIP3      H1             35.0468996015       15.2098442534       17.5902753365  SOLV      8968            0.0000000000
     27018      8979  TIP3      H2             33.6089196015       15.1923742534       18.0633553365  SOLV      8968            0.0000000000
     27019      8980  TIP3      OH2            18.3777896015        1.0002142534       30.3319353365  SOLV      8969            0.0000000000
     27020      8980  TIP3      H1             17.4850196015        1.3387542534       30.2643353365  SOLV      8969            0.0000000000
     27021      8980  TIP3      H2             18.2790696015        0.1448242534       30.7500153365  SOLV      8969            0.0000000000
     27022      8981  TIP3      OH2            30.6655996015        8.8167442534       19.7558853365  SOLV      8970            0.0000000000
     27023      8981  TIP3      H1             30.3883596015        8.0886742534       20.3119953365  SOLV      8970            0.0000000000
     27024      8981  TIP3      H2             31.5928996015        8.9359442534       19.9611453365  SOLV      8970            0.0000000000
     27025      8982  TIP3      OH2            18.0289896015       12.8046542534       28.7668753365  SOLV      8971            0.0000000000
     27026      8982  TIP3      H1             18.2460196015       11.8728942534       28.7358453365  SOLV      8971            0.0000000000
     27027      8982  TIP3      H2             18.2753396015       13.0791542534       29.6501553365  SOLV      8971            0.0000000000
     27028      8983  TIP3      OH2            23.8904496015       11.2561542534       15.9760953365  SOLV      8972            0.0000000000
     27029      8983  TIP3      H1             24.1294296015       10.5079642534       15.4289853365  SOLV      8972            0.0000000000
     27030      8983  TIP3      H2             23.6215796015       10.8683242534       16.8088753365  SOLV      8972            0.0000000000
     27031      8984  TIP3      OH2            22.8275096015       10.8265342534       18.4323553365  SOLV      8973            0.0000000000
     27032      8984  TIP3      H1             22.9743096015       10.3065142534       19.2224453365  SOLV      8973            0.0000000000
     27033      8984  TIP3      H2             22.8246796015       11.7332942534       18.7389453365  SOLV      8973            0.0000000000
     27034      8985  TIP3      OH2            27.8966196015        0.3934142534       20.3190253365  SOLV      8974            0.0000000000
     27035      8985  TIP3      H1             28.1164496015        0.8649542534       19.5155653365  SOLV      8974            0.0000000000
     27036      8985  TIP3      H2             28.4550196015        0.7876742534       20.9890853365  SOLV      8974            0.0000000000
     27037      8986  TIP3      OH2            25.5652296015       12.5238942534       19.1817753365  SOLV      8975            0.0000000000
     27038      8986  TIP3      H1             24.7488396015       13.0208642534       19.2342053365  SOLV      8975            0.0000000000
     27039      8986  TIP3      H2             26.0948596015       12.9992442534       18.5416553365  SOLV      8975            0.0000000000
     27040      8987  TIP3      OH2            25.0966096015        2.1212942534       21.1538653365  SOLV      8976            0.0000000000
     27041      8987  TIP3      H1             25.9088696015        2.6256142534       21.2000353365  SOLV      8976            0.0000000000
     27042      8987  TIP3      H2             24.8519096015        1.9762642534       22.0678253365  SOLV      8976            0.0000000000
     27043      8988  TIP3      OH2            25.9802796015       -0.7974057466       22.0919753365  SOLV      8977            0.0000000000
     27044      8988  TIP3      H1             25.6336296015       -0.1803457466       22.7364053365  SOLV      8977            0.0000000000
     27045      8988  TIP3      H2             26.6389696015       -0.2968357466       21.6105253365  SOLV      8977            0.0000000000
     27046      8989  TIP3      OH2            22.9035396015       13.5676142534       19.1634653365  SOLV      8978            0.0000000000
     27047      8989  TIP3      H1             23.0644096015       14.3673642534       18.6627253365  SOLV      8978            0.0000000000
     27048      8989  TIP3      H2             22.7063196015       13.8742142534       20.0485253365  SOLV      8978            0.0000000000
     27049      8990  TIP3      OH2            21.6379796015        0.2655342534       18.7792253365  SOLV      8979            0.0000000000
     27050      8990  TIP3      H1             21.5544596015        1.1538442534       19.1258653365  SOLV      8979            0.0000000000
     27051      8990  TIP3      H2             22.5280096015        0.0002042534       19.0109053365  SOLV      8979            0.0000000000
     27052      8991  TIP3      OH2            30.4389296015        4.7646942534       25.2692253365  SOLV      8980            0.0000000000
     27053      8991  TIP3      H1             29.6413696015        4.3497142534       24.9407253365  SOLV      8980            0.0000000000
     27054      8991  TIP3      H2             30.8840396015        4.0740642534       25.7602753365  SOLV      8980            0.0000000000
     27055      8992  TIP3      OH2            19.8965096015       10.6927542534       17.8396753365  SOLV      8981            0.0000000000
     27056      8992  TIP3      H1             20.4886596015       11.3922342534       18.1159153365  SOLV      8981            0.0000000000
     27057      8992  TIP3      H2             20.3558096015       10.2597042534       17.1201353365  SOLV      8981            0.0000000000
     27058      8993  TIP3      OH2            18.2124296015        3.3570542534       16.9556153365  SOLV      8982            0.0000000000
     27059      8993  TIP3      H1             18.1676896015        4.2963642534       17.1343153365  SOLV      8982            0.0000000000
     27060      8993  TIP3      H2             17.3247496015        3.1215442534       16.6858253365  SOLV      8982            0.0000000000
     27061      8994  TIP3      OH2            19.0206296015       -1.8612857466       25.6287153365  SOLV      8983            0.0000000000
     27062      8994  TIP3      H1             18.7916096015       -1.8020357466       24.7012153365  SOLV      8983            0.0000000000
     27063      8994  TIP3      H2             18.5779696015       -2.6527357466       25.9351253365  SOLV      8983            0.0000000000
     27064      8995  TIP3      OH2            17.9509596015       12.0794242534       21.7892953365  SOLV      8984            0.0000000000
     27065      8995  TIP3      H1             17.1188196015       12.5516942534       21.8164353365  SOLV      8984            0.0000000000
     27066      8995  TIP3      H2             18.4967896015       12.5891842534       21.1906053365  SOLV      8984            0.0000000000
     27067      8996  TIP3      OH2            25.9286296015       13.1192942534       16.1146953365  SOLV      8985            0.0000000000
     27068      8996  TIP3      H1             25.2847296015       12.4881542534       16.4360653365  SOLV      8985            0.0000000000
     27069      8996  TIP3      H2             26.6904596015       12.5880942534       15.8830453365  SOLV      8985            0.0000000000
     27070      8997  TIP3      OH2            30.5329196015       12.9362842534       16.3484953365  SOLV      8986            0.0000000000
     27071      8997  TIP3      H1             30.8159596015       12.1418042534       16.8011853365  SOLV      8986            0.0000000000
     27072      8997  TIP3      H2             31.2727096015       13.1693842534       15.7876053365  SOLV      8986            0.0000000000
     27073      8998  TIP3      OH2            21.4876496015        8.8457742534       16.2059853365  SOLV      8987            0.0000000000
     27074      8998  TIP3      H1             21.5520596015        8.0517342534       16.7366253365  SOLV      8987            0.0000000000
     27075      8998  TIP3      H2             22.1405696015        8.7270542534       15.5161853365  SOLV      8987            0.0000000000
     27076      8999  TIP3      OH2            26.8399896015        9.8929442534       15.9417853365  SOLV      8988            0.0000000000
     27077      8999  TIP3      H1             26.5713996015       10.0731542534       16.8426753365  SOLV      8988            0.0000000000
     27078      8999  TIP3      H2             26.6335496015        8.9675642534       15.8103653365  SOLV      8988            0.0000000000
     27079      9000  TIP3      OH2            21.9259596015        4.7111042534       30.8677453365  SOLV      8989            0.0000000000
     27080      9000  TIP3      H1             21.3075696015        5.3857642534       31.1482153365  SOLV      8989            0.0000000000
     27081      9000  TIP3      H2             22.2700796015        5.0324942534       30.0343653365  SOLV      8989            0.0000000000
     27082      9001  TIP3      OH2            33.0978996015        7.4159942534       16.2199153365  SOLV      8990            0.0000000000
     27083      9001  TIP3      H1             32.8243796015        6.9915442534       15.4067453365  SOLV      8990            0.0000000000
     27084      9001  TIP3      H2             33.1373096015        8.3474442534       16.0029553365  SOLV      8990            0.0000000000
     27085      9002  TIP3      OH2            22.2653296015        2.0661842534       31.9500553365  SOLV      8991            0.0000000000
     27086      9002  TIP3      H1             22.4154196015        1.3373142534       31.3480253365  SOLV      8991            0.0000000000
     27087      9002  TIP3      H2             22.2675696015        2.8433542534       31.3912753365  SOLV      8991            0.0000000000
     27088      9003  TIP3      OH2            22.6778996015        0.4357642534       29.4427953365  SOLV      8992            0.0000000000
     27089      9003  TIP3      H1             23.2136496015        0.8874342534       28.7907253365  SOLV      8992            0.0000000000
     27090      9003  TIP3      H2             21.8258596015        0.3277442534       29.0202053365  SOLV      8992            0.0000000000
     27091      9004  TIP3      OH2            23.4834496015       -2.1076657466       29.8741553365  SOLV      8993            0.0000000000
     27092      9004  TIP3      H1             23.3854096015       -1.1613457466       29.7687753365  SOLV      8993            0.0000000000
     27093      9004  TIP3      H2             22.7410696015       -2.4802857466       29.3985053365  SOLV      8993            0.0000000000
     27094      9005  TIP3      OH2            18.9242396015        1.1849142534       33.5660853365  SOLV      8994            0.0000000000
     27095      9005  TIP3      H1             19.1359796015        0.4785242534       32.9558353365  SOLV      8994            0.0000000000
     27096      9005  TIP3      H2             18.8129896015        0.7475142534       34.4102053365  SOLV      8994            0.0000000000
     27097      9006  TIP3      OH2            23.7052596015       -2.8139257466       32.5454353365  SOLV      8995            0.0000000000
     27098      9006  TIP3      H1             24.4170996015       -3.4537057466       32.5313453365  SOLV      8995            0.0000000000
     27099      9006  TIP3      H2             23.6042996015       -2.5470957466       31.6317453365  SOLV      8995            0.0000000000
     27100      9007  TIP3      OH2            23.6052396015       15.7519442534       17.7754653365  SOLV      8996            0.0000000000
     27101      9007  TIP3      H1             24.5383096015       15.9098142534       17.9193053365  SOLV      8996            0.0000000000
     27102      9007  TIP3      H2             23.3411196015       16.4272442534       17.1506153365  SOLV      8996            0.0000000000
     27103      9008  TIP3      OH2            17.1737296015       10.3883242534       17.2582753365  SOLV      8997            0.0000000000
     27104      9008  TIP3      H1             18.0876496015       10.4672142534       17.5316653365  SOLV      8997            0.0000000000
     27105      9008  TIP3      H2             17.1810396015        9.7012842534       16.5918353365  SOLV      8997            0.0000000000
     27106      9009  TIP3      OH2            15.8227896015       15.7811742534       22.3356653365  SOLV      8998            0.0000000000
     27107      9009  TIP3      H1             15.1754996015       15.3193442534       21.8027853365  SOLV      8998            0.0000000000
     27108      9009  TIP3      H2             16.1772496015       15.1095042534       22.9182853365  SOLV      8998            0.0000000000
     27109      9010  TIP3      OH2            16.6927096015       13.8618742534       24.1402853365  SOLV      8999            0.0000000000
     27110      9010  TIP3      H1             16.3583896015       12.9816042534       24.3123053365  SOLV      8999            0.0000000000
     27111      9010  TIP3      H2             16.9149496015       14.2073742534       25.0048453365  SOLV      8999            0.0000000000
     27112      9011  TIP3      OH2            33.5561796015        8.2848042534       20.1949553365  SOLV      9000            0.0000000000
     27113      9011  TIP3      H1             34.4063196015        8.7058942534       20.3221153365  SOLV      9000            0.0000000000
     27114      9011  TIP3      H2             33.5616896015        7.5448142534       20.8020953365  SOLV      9000            0.0000000000
     27115      9012  TIP3      OH2            33.9507396015        6.3385442534       22.0185253365  SOLV      9001            0.0000000000
     27116      9012  TIP3      H1             33.2241996015        5.8588042534       22.4162853365  SOLV      9001            0.0000000000
     27117      9012  TIP3      H2             34.5320696015        6.5440142534       22.7506853365  SOLV      9001            0.0000000000
     27118      9013  TIP3      OH2            34.2190496015        6.2393942534       18.4096553365  SOLV      9002            0.0000000000
     27119      9013  TIP3      H1             33.6971596015        6.5958042534       17.6907453365  SOLV      9002            0.0000000000
     27120      9013  TIP3      H2             34.1859696015        6.9141742534       19.0877453365  SOLV      9002            0.0000000000
     27121      9014  TIP3      OH2            32.5679496015        3.4789542534       16.9603653365  SOLV      9003            0.0000000000
     27122      9014  TIP3      H1             32.6643896015        4.1456542534       16.2803353365  SOLV      9003            0.0000000000
     27123      9014  TIP3      H2             32.4279096015        2.6635842534       16.4789153365  SOLV      9003            0.0000000000
     27124      9015  TIP3      OH2            31.7374196015        4.8591942534       22.5813953365  SOLV      9004            0.0000000000
     27125      9015  TIP3      H1             31.5872996015        3.9140542534       22.5611753365  SOLV      9004            0.0000000000
     27126      9015  TIP3      H2             31.3838696015        5.1403342534       23.4253053365  SOLV      9004            0.0000000000
     27127      9016  TIP3      OH2            16.7726596015        6.9374142534       26.5917753365  SOLV      9005            0.0000000000
     27128      9016  TIP3      H1             16.9569496015        6.8555842534       25.6560653365  SOLV      9005            0.0000000000
     27129      9016  TIP3      H2             17.6219496015        6.8131142534       27.0154153365  SOLV      9005            0.0000000000
     27130      9017  TIP3      OH2            31.8153296015        0.8869342534       16.0779153365  SOLV      9006            0.0000000000
     27131      9017  TIP3      H1             32.4259096015        0.5156142534       16.7147353365  SOLV      9006            0.0000000000
     27132      9017  TIP3      H2             30.9784796015        0.4656242534       16.2739153365  SOLV      9006            0.0000000000
     27133      9018  TIP3      OH2            31.4478996015        2.4417742534       21.0439053365  SOLV      9007            0.0000000000
     27134      9018  TIP3      H1             31.7276096015        1.5348142534       21.1680753365  SOLV      9007            0.0000000000
     27135      9018  TIP3      H2             32.2070696015        2.8759242534       20.6548253365  SOLV      9007            0.0000000000
     27136      9019  TIP3      OH2            16.3701396015        2.2079142534       32.7326553365  SOLV      9008            0.0000000000
     27137      9019  TIP3      H1             17.2896296015        2.0857442534       32.9689653365  SOLV      9008            0.0000000000
     27138      9019  TIP3      H2             15.9205896015        1.4578842534       33.1220053365  SOLV      9008            0.0000000000
     27139      9020  TIP3      OH2            32.0613796015       -0.2952957466       21.0921053365  SOLV      9009            0.0000000000
     27140      9020  TIP3      H1             32.2438796015       -0.7441457466       21.9176053365  SOLV      9009            0.0000000000
     27141      9020  TIP3      H2             31.4616696015       -0.8798557466       20.6285653365  SOLV      9009            0.0000000000
     27142      9021  TIP3      OH2            17.5913896015        0.5200742534       25.6239453365  SOLV      9010            0.0000000000
     27143      9021  TIP3      H1             18.0365496015       -0.2716757466       25.9259153365  SOLV      9010            0.0000000000
     27144      9021  TIP3      H2             18.0576896015        1.2365942534       26.0545053365  SOLV      9010            0.0000000000
     27145      9022  TIP3      OH2            15.8954196015        3.5193742534       26.6929653365  SOLV      9011            0.0000000000
     27146      9022  TIP3      H1             16.3873996015        3.2984242534       25.9021653365  SOLV      9011            0.0000000000
     27147      9022  TIP3      H2             16.2575096015        4.3597142534       26.9739153365  SOLV      9011            0.0000000000
     27148      9023  TIP3      OH2            33.9279996015       -0.2274857466       17.6201353365  SOLV      9012            0.0000000000
     27149      9023  TIP3      H1             34.3402596015       -0.9489157466       17.1449353365  SOLV      9012            0.0000000000
     27150      9023  TIP3      H2             34.6096496015        0.4419742534       17.6785653365  SOLV      9012            0.0000000000
     27151      9024  TIP3      OH2            16.2090696015       -0.2227157466       20.7472053365  SOLV      9013            0.0000000000
     27152      9024  TIP3      H1             15.2839096015       -0.0140557466       20.6177553365  SOLV      9013            0.0000000000
     27153      9024  TIP3      H2             16.6630596015        0.2613642534       20.0574353365  SOLV      9013            0.0000000000
     27154      9025  TIP3      OH2            16.1726096015       -1.4848157466       29.0914553365  SOLV      9014            0.0000000000
     27155      9025  TIP3      H1             15.5076596015       -1.7307857466       29.7345453365  SOLV      9014            0.0000000000
     27156      9025  TIP3      H2             15.7297396015       -0.8627757466       28.5142553365  SOLV      9014            0.0000000000
     27157      9026  TIP3      OH2            18.1353096015       14.5443542534       26.4521453365  SOLV      9015            0.0000000000
     27158      9026  TIP3      H1             18.1169096015       14.1188642534       27.3093753365  SOLV      9015            0.0000000000
     27159      9026  TIP3      H2             18.9400996015       14.2258542534       26.0433653365  SOLV      9015            0.0000000000
     27160      9027  TIP3      OH2            20.2766196015       13.2542242534       25.1071353365  SOLV      9016            0.0000000000
     27161      9027  TIP3      H1             20.0576896015       12.3379642534       25.2767353365  SOLV      9016            0.0000000000
     27162      9027  TIP3      H2             21.1008396015       13.3942642534       25.5732753365  SOLV      9016            0.0000000000
     27163      9028  TIP3      OH2            22.8138696015       13.7241542534       25.9559353365  SOLV      9017            0.0000000000
     27164      9028  TIP3      H1             23.0264396015       12.8360542534       25.6690253365  SOLV      9017            0.0000000000
     27165      9028  TIP3      H2             22.8783796015       13.6899242534       26.9103353365  SOLV      9017            0.0000000000
     27166      9029  TIP3      OH2            26.3222396015       -0.6117857466       25.1002653365  SOLV      9018            0.0000000000
     27167      9029  TIP3      H1             25.6479196015       -1.2412257466       25.3558453365  SOLV      9018            0.0000000000
     27168      9029  TIP3      H2             26.8861596015       -1.0958957466       24.4970553365  SOLV      9018            0.0000000000
     27169      9030  TIP3      OH2            31.4649596015       -2.5043857466       25.2129753365  SOLV      9019            0.0000000000
     27170      9030  TIP3      H1             32.0687196015       -1.9568457466       24.7110753365  SOLV      9019            0.0000000000
     27171      9030  TIP3      H2             30.5951596015       -2.1853457466       24.9723853365  SOLV      9019            0.0000000000
     27172      9031  TIP3      OH2            33.1919996015       -1.3655157466       23.5460653365  SOLV      9020            0.0000000000
     27173      9031  TIP3      H1             33.8037496015       -1.8799457466       23.0194253365  SOLV      9020            0.0000000000
     27174      9031  TIP3      H2             33.5743396015       -0.4883057466       23.5695053365  SOLV      9020            0.0000000000
     27175      9032  TIP3      OH2            18.6489896015       -1.9777557466       22.9222553365  SOLV      9021            0.0000000000
     27176      9032  TIP3      H1             17.8719696015       -2.2122657466       22.4148453365  SOLV      9021            0.0000000000
     27177      9032  TIP3      H2             19.1793496015       -2.7745457466       22.9310553365  SOLV      9021            0.0000000000
     27178      9033  TIP3      OH2            17.4853296015       -2.1799457466       18.7258653365  SOLV      9022            0.0000000000
     27179      9033  TIP3      H1             17.9243996015       -1.5688957466       18.1342153365  SOLV      9022            0.0000000000
     27180      9033  TIP3      H2             16.8515696015       -1.6415357466       19.1998653365  SOLV      9022            0.0000000000
     27181      9034  TIP3      OH2            23.2282496015       -2.0510457466       22.7355653365  SOLV      9023            0.0000000000
     27182      9034  TIP3      H1             24.1025896015       -1.6626157466       22.7059953365  SOLV      9023            0.0000000000
     27183      9034  TIP3      H2             23.0923296015       -2.2662657466       23.6582853365  SOLV      9023            0.0000000000
     27184      9035  TIP3      OH2            28.7850896015       -2.0210657466       24.3847353365  SOLV      9024            0.0000000000
     27185      9035  TIP3      H1             28.8612496015       -1.9259057466       23.4353353365  SOLV      9024            0.0000000000
     27186      9035  TIP3      H2             28.5100096015       -2.9287757466       24.5136453365  SOLV      9024            0.0000000000
     27187      9036  TIP3      OH2            30.1383496015       -1.9952857466       20.0772353365  SOLV      9025            0.0000000000
     27188      9036  TIP3      H1             29.4354596015       -1.3803657466       19.8673753365  SOLV      9025            0.0000000000
     27189      9036  TIP3      H2             29.6934896015       -2.8326157466       20.2083253365  SOLV      9025            0.0000000000
     27190      9037  TIP3      OH2            17.3862796015       13.7682742534       19.6233753365  SOLV      9026            0.0000000000
     27191      9037  TIP3      H1             16.7012696015       13.7301642534       18.9558853365  SOLV      9026            0.0000000000
     27192      9037  TIP3      H2             17.3899996015       14.6810342534       19.9115853365  SOLV      9026            0.0000000000
     27193      9038  TIP3      OH2            19.3462396015       -0.2637957466       17.1682753365  SOLV      9027            0.0000000000
     27194      9038  TIP3      H1             19.8375796015       -0.8935557466       16.6408253365  SOLV      9027            0.0000000000
     27195      9038  TIP3      H2             19.9698696015        0.0321442534       17.8313953365  SOLV      9027            0.0000000000
     27196      9039  TIP3      OH2            24.3722496015        0.0293542534       19.6253253365  SOLV      9028            0.0000000000
     27197      9039  TIP3      H1             24.5503796015       -0.6173257466       20.3081853365  SOLV      9028            0.0000000000
     27198      9039  TIP3      H2             24.3188696015        0.8631242534       20.0924353365  SOLV      9028            0.0000000000
     27199      9040  TIP3      OH2            26.2506296015       14.9777642534       18.0209953365  SOLV      9029            0.0000000000
     27200      9040  TIP3      H1             27.1166496015       15.3445042534       17.8428153365  SOLV      9029            0.0000000000
     27201      9040  TIP3      H2             26.0039096015       14.5385642534       17.2070753365  SOLV      9029            0.0000000000
     27202      9041  TIP3      OH2            32.9595896015       14.5407942534       20.7001053365  SOLV      9030            0.0000000000
     27203      9041  TIP3      H1             32.7652996015       13.7930042534       20.1350653365  SOLV      9030            0.0000000000
     27204      9041  TIP3      H2             32.9205996015       15.2988042534       20.1168953365  SOLV      9030            0.0000000000
     27205      9042  TIP3      OH2            18.6067896015       -1.4635657466       32.4398753365  SOLV      9031            0.0000000000
     27206      9042  TIP3      H1             18.2406096015       -2.2293057466       32.8823453365  SOLV      9031            0.0000000000
     27207      9042  TIP3      H2             19.5196396015       -1.4345457466       32.7263853365  SOLV      9031            0.0000000000
     27208      9043  TIP3      OH2            20.5798696015       -2.1131257466       33.9755853365  SOLV      9032            0.0000000000
     27209      9043  TIP3      H1             21.4782296015       -2.3871057466       33.7909253365  SOLV      9032            0.0000000000
     27210      9043  TIP3      H2             20.1931796015       -2.8555257466       34.4398453365  SOLV      9032            0.0000000000
     27211      9044  TIP3      OH2            19.2043996015       14.6883542534       16.6485853365  SOLV      9033            0.0000000000
     27212      9044  TIP3      H1             18.9368596015       14.9746442534       17.5218953365  SOLV      9033            0.0000000000
     27213      9044  TIP3      H2             19.9756596015       14.1422742534       16.8008353365  SOLV      9033            0.0000000000
     27214      9045  TIP3      OH2            35.4182396015        4.1579042534       21.8206053365  SOLV      9034            0.0000000000
     27215      9045  TIP3      H1             34.9705796015        5.0037742534       21.8022553365  SOLV      9034            0.0000000000
     27216      9045  TIP3      H2             34.8573596015        3.5783242534       21.3051153365  SOLV      9034            0.0000000000
     27217      9046  TIP3      OH2            36.1091996015        9.5900642534       20.2364153365  SOLV      9035            0.0000000000
     27218      9046  TIP3      H1             35.8372896015        9.8191642534       19.3477053365  SOLV      9035            0.0000000000
     27219      9046  TIP3      H2             36.1547696015       10.4279442534       20.6969453365  SOLV      9035            0.0000000000
     27220      9047  TIP3      OH2            34.7559096015        0.8903442534       23.4227753365  SOLV      9036            0.0000000000
     27221      9047  TIP3      H1             35.3866796015        0.8615542534       24.1421653365  SOLV      9036            0.0000000000
     27222      9047  TIP3      H2             35.2053396015        0.4652142534       22.6923653365  SOLV      9036            0.0000000000
     27223      9048  TIP3      OH2            36.0301196015        1.6365442534       18.8468153365  SOLV      9037            0.0000000000
     27224      9048  TIP3      H1             36.5042896015        2.2275342534       18.2619053365  SOLV      9037            0.0000000000
     27225      9048  TIP3      H2             35.3127596015        2.1668342534       19.1938253365  SOLV      9037            0.0000000000
     27226      9049  TIP3      OH2            37.8045596015        2.7312042534       22.5302753365  SOLV      9038            0.0000000000
     27227      9049  TIP3      H1             36.9153596015        2.8307542534       22.1902353365  SOLV      9038            0.0000000000
     27228      9049  TIP3      H2             38.1010496015        1.8895042534       22.1840653365  SOLV      9038            0.0000000000
     27229      9050  TIP3      OH2            40.1317596015        3.9256842534       17.7533453365  SOLV      9039            0.0000000000
     27230      9050  TIP3      H1             39.5892696015        3.5460642534       17.0621053365  SOLV      9039            0.0000000000
     27231      9050  TIP3      H2             40.9652496015        4.1201542534       17.3247553365  SOLV      9039            0.0000000000
     27232      9051  TIP3      OH2            36.7215796015        6.1664842534       17.4503353365  SOLV      9040            0.0000000000
     27233      9051  TIP3      H1             37.3375696015        6.7932042534       17.8298153365  SOLV      9040            0.0000000000
     27234      9051  TIP3      H2             35.8598396015        6.4824642534       17.7219853365  SOLV      9040            0.0000000000
     27235      9052  TIP3      OH2            38.1366196015        8.0788642534       18.9428953365  SOLV      9041            0.0000000000
     27236      9052  TIP3      H1             37.4505496015        8.4311142534       19.5098653365  SOLV      9041            0.0000000000
     27237      9052  TIP3      H2             38.6594096015        8.8418242534       18.6963253365  SOLV      9041            0.0000000000
     27238      9053  TIP3      OH2            38.7525096015       10.6927542534       17.8396753365  SOLV      9042            0.0000000000
     27239      9053  TIP3      H1             39.3446596015       11.3922342534       18.1159153365  SOLV      9042            0.0000000000
     27240      9053  TIP3      H2             39.2118096015       10.2597042534       17.1201353365  SOLV      9042            0.0000000000
     27241      9054  TIP3      OH2            37.0684296015        3.3570542534       16.9556153365  SOLV      9043            0.0000000000
     27242      9054  TIP3      H1             37.0236896015        4.2963642534       17.1343153365  SOLV      9043            0.0000000000
     27243      9054  TIP3      H2             36.1807496015        3.1215442534       16.6858253365  SOLV      9043            0.0000000000
     27244      9055  TIP3      OH2            40.3436496015        8.8457742534       16.2059853365  SOLV      9044            0.0000000000
     27245      9055  TIP3      H1             40.4080596015        8.0517342534       16.7366253365  SOLV      9044            0.0000000000
     27246      9055  TIP3      H2             40.9965696015        8.7270542534       15.5161853365  SOLV      9044            0.0000000000
     27247      9056  TIP3      OH2            36.0297296015       10.3883242534       17.2582753365  SOLV      9045            0.0000000000
     27248      9056  TIP3      H1             36.9436496015       10.4672142534       17.5316653365  SOLV      9045            0.0000000000
     27249      9056  TIP3      H2             36.0370396015        9.7012842534       16.5918353365  SOLV      9045            0.0000000000
     27250      9057  TIP3      OH2            35.0650696015       -0.2227157466       20.7472053365  SOLV      9046            0.0000000000
     27251      9057  TIP3      H1             34.1399096015       -0.0140557466       20.6177553365  SOLV      9046            0.0000000000
     27252      9057  TIP3      H2             35.5190596015        0.2613642534       20.0574353365  SOLV      9046            0.0000000000
     27253      9058  TIP3      OH2            37.5049896015       -1.9777557466       22.9222553365  SOLV      9047            0.0000000000
     27254      9058  TIP3      H1             36.7279696015       -2.2122657466       22.4148453365  SOLV      9047            0.0000000000
     27255      9058  TIP3      H2             38.0353496015       -2.7745457466       22.9310553365  SOLV      9047            0.0000000000
     27256      9059  TIP3      OH2            36.3413296015       -2.1799457466       18.7258653365  SOLV      9048            0.0000000000
     27257      9059  TIP3      H1             36.7803996015       -1.5688957466       18.1342153365  SOLV      9048            0.0000000000
     27258      9059  TIP3      H2             35.7075696015       -1.6415357466       19.1998653365  SOLV      9048            0.0000000000
     27259      9060  TIP3      OH2            38.2022396015       -0.2637957466       17.1682753365  SOLV      9049            0.0000000000
     27260      9060  TIP3      H1             38.6935796015       -0.8935557466       16.6408253365  SOLV      9049            0.0000000000
     27261      9060  TIP3      H2             38.8258696015        0.0321442534       17.8313953365  SOLV      9049            0.0000000000
     27262      9061  TIP3      OH2            38.0603996015       14.6883542534       16.6485853365  SOLV      9050            0.0000000000
     27263      9061  TIP3      H1             37.7928596015       14.9746442534       17.5218953365  SOLV      9050            0.0000000000
     27264      9061  TIP3      H2             38.8316596015       14.1422742534       16.8008353365  SOLV      9050            0.0000000000
     27265      9062  TIP3      OH2           -22.8552003985       19.3232142534       27.5665453365  SOLV      9051            0.0000000000
     27266      9062  TIP3      H1            -22.8059803985       19.9333342534       28.3024553365  SOLV      9051            0.0000000000
     27267      9062  TIP3      H2            -22.4296903985       19.7843042534       26.8436553365  SOLV      9051            0.0000000000
     27268      9063  TIP3      OH2           -25.7365403985       19.6390542534       24.6873053365  SOLV      9052            0.0000000000
     27269      9063  TIP3      H1            -25.9517403985       18.8733942534       25.2199053365  SOLV      9052            0.0000000000
     27270      9063  TIP3      H2            -25.0808003985       20.1115142534       25.2001553365  SOLV      9052            0.0000000000
     27271      9064  TIP3      OH2           -25.3891303985       18.3541842534       28.3666553365  SOLV      9053            0.0000000000
     27272      9064  TIP3      H1            -26.1252103985       18.9648942534       28.3287853365  SOLV      9053            0.0000000000
     27273      9064  TIP3      H2            -24.7057303985       18.7690842534       27.8402953365  SOLV      9053            0.0000000000
     27274      9065  TIP3      OH2           -32.3859903985       16.4409142534       25.8324553365  SOLV      9054            0.0000000000
     27275      9065  TIP3      H1            -32.5035703985       15.4925142534       25.7782853365  SOLV      9054            0.0000000000
     27276      9065  TIP3      H2            -33.2409803985       16.7735242534       26.1055653365  SOLV      9054            0.0000000000
     27277      9066  TIP3      OH2           -30.0655803985       23.7359042534       17.3715353365  SOLV      9055            0.0000000000
     27278      9066  TIP3      H1            -29.3645903985       23.7585942534       18.0229353365  SOLV      9055            0.0000000000
     27279      9066  TIP3      H2            -29.7632903985       23.1078742534       16.7154653365  SOLV      9055            0.0000000000
     27280      9067  TIP3      OH2           -24.1439403985       16.4001342534       18.7827153365  SOLV      9056            0.0000000000
     27281      9067  TIP3      H1            -25.0438703985       16.5390342534       19.0777753365  SOLV      9056            0.0000000000
     27282      9067  TIP3      H2            -23.8921003985       17.2315942534       18.3808853365  SOLV      9056            0.0000000000
     27283      9068  TIP3      OH2           -22.9548003985       30.7663742534       17.1591053365  SOLV      9057            0.0000000000
     27284      9068  TIP3      H1            -22.8814503985       31.7053942534       17.3296353365  SOLV      9057            0.0000000000
     27285      9068  TIP3      H2            -22.0492903985       30.4612342534       17.1028353365  SOLV      9057            0.0000000000
     27286      9069  TIP3      OH2           -26.3654703985       25.6829242534       16.5995353365  SOLV      9058            0.0000000000
     27287      9069  TIP3      H1            -26.3233903985       25.4603142534       15.6695353365  SOLV      9058            0.0000000000
     27288      9069  TIP3      H2            -25.5162603985       26.0816342534       16.7895253365  SOLV      9058            0.0000000000
     27289      9070  TIP3      OH2           -30.7927203985       19.5587442534       17.2698653365  SOLV      9059            0.0000000000
     27290      9070  TIP3      H1            -31.0462403985       19.5779042534       18.1926753365  SOLV      9059            0.0000000000
     27291      9070  TIP3      H2            -31.0495103985       18.6872842534       16.9684853365  SOLV      9059            0.0000000000
     27292      9071  TIP3      OH2           -28.4889903985       22.3928942534       24.2481553365  SOLV      9060            0.0000000000
     27293      9071  TIP3      H1            -28.6845403985       22.9985742534       23.5332153365  SOLV      9060            0.0000000000
     27294      9071  TIP3      H2            -28.3077303985       21.5594142534       23.8137853365  SOLV      9060            0.0000000000
     27295      9072  TIP3      OH2           -28.0425903985       19.1932042534       26.9676953365  SOLV      9061            0.0000000000
     27296      9072  TIP3      H1            -28.7194303985       19.3245142534       27.6316653365  SOLV      9061            0.0000000000
     27297      9072  TIP3      H2            -28.5281003985       19.0381542534       26.1574653365  SOLV      9061            0.0000000000
     27298      9073  TIP3      OH2           -28.0592803985       20.1612442534       17.8884153365  SOLV      9062            0.0000000000
     27299      9073  TIP3      H1            -28.9978603985       20.2728042534       17.7372953365  SOLV      9062            0.0000000000
     27300      9073  TIP3      H2            -27.7620703985       21.0179342534       18.1949853365  SOLV      9062            0.0000000000
     27301      9074  TIP3      OH2           -27.3409303985       22.0285142534       19.5491553365  SOLV      9063            0.0000000000
     27302      9074  TIP3      H1            -26.4490303985       21.8910142534       19.8682753365  SOLV      9063            0.0000000000
     27303      9074  TIP3      H2            -27.2845703985       22.8191242534       19.0125053365  SOLV      9063            0.0000000000
     27304      9075  TIP3      OH2           -22.4560603985       22.2379242534       19.2438253365  SOLV      9064            0.0000000000
     27305      9075  TIP3      H1            -23.0104303985       21.8417242534       18.5715753365  SOLV      9064            0.0000000000
     27306      9075  TIP3      H2            -22.3557003985       23.1484442534       18.9661553365  SOLV      9064            0.0000000000
     27307      9076  TIP3      OH2           -24.1608903985       31.0239642534       19.7090353365  SOLV      9065            0.0000000000
     27308      9076  TIP3      H1            -24.5337803985       30.1983442534       20.0180953365  SOLV      9065            0.0000000000
     27309      9076  TIP3      H2            -23.8835403985       30.8409042534       18.8113753365  SOLV      9065            0.0000000000
     27310      9077  TIP3      OH2           -26.7683303985       29.0005442534       17.5290953365  SOLV      9066            0.0000000000
     27311      9077  TIP3      H1            -26.4150203985       28.6205242534       18.3334453365  SOLV      9066            0.0000000000
     27312      9077  TIP3      H2            -27.7169803985       28.9070242534       17.6160253365  SOLV      9066            0.0000000000
     27313      9078  TIP3      OH2           -22.2648903985       33.4797942534       17.7301153365  SOLV      9067            0.0000000000
     27314      9078  TIP3      H1            -21.5211003985       34.0658442534       17.5902753365  SOLV      9067            0.0000000000
     27315      9078  TIP3      H2            -22.9590803985       34.0483742534       18.0633553365  SOLV      9067            0.0000000000
     27316      9079  TIP3      OH2           -25.9024003985       27.6727442534       19.7558853365  SOLV      9068            0.0000000000
     27317      9079  TIP3      H1            -26.1796403985       26.9446742534       20.3119953365  SOLV      9068            0.0000000000
     27318      9079  TIP3      H2            -24.9751003985       27.7919442534       19.9611453365  SOLV      9068            0.0000000000
     27319      9080  TIP3      OH2           -31.4713903985       20.9772942534       21.1538653365  SOLV      9069            0.0000000000
     27320      9080  TIP3      H1            -30.6591303985       21.4816142534       21.2000353365  SOLV      9069            0.0000000000
     27321      9080  TIP3      H2            -31.7160903985       20.8322642534       22.0678253365  SOLV      9069            0.0000000000
     27322      9081  TIP3      OH2           -30.5877203985       18.0585942534       22.0919753365  SOLV      9070            0.0000000000
     27323      9081  TIP3      H1            -30.9343703985       18.6756542534       22.7364053365  SOLV      9070            0.0000000000
     27324      9081  TIP3      H2            -29.9290303985       18.5591642534       21.6105253365  SOLV      9070            0.0000000000
     27325      9082  TIP3      OH2           -26.1290703985       23.6206942534       25.2692253365  SOLV      9071            0.0000000000
     27326      9082  TIP3      H1            -26.9266303985       23.2057142534       24.9407253365  SOLV      9071            0.0000000000
     27327      9082  TIP3      H2            -25.6839603985       22.9300642534       25.7602753365  SOLV      9071            0.0000000000
     27328      9083  TIP3      OH2           -26.0350803985       31.7922842534       16.3484953365  SOLV      9072            0.0000000000
     27329      9083  TIP3      H1            -25.7520403985       30.9978042534       16.8011853365  SOLV      9072            0.0000000000
     27330      9083  TIP3      H2            -25.2952903985       32.0253842534       15.7876053365  SOLV      9072            0.0000000000
     27331      9084  TIP3      OH2           -23.4701003985       26.2719942534       16.2199153365  SOLV      9073            0.0000000000
     27332      9084  TIP3      H1            -23.7436203985       25.8475442534       15.4067453365  SOLV      9073            0.0000000000
     27333      9084  TIP3      H2            -23.4306903985       27.2034442534       16.0029553365  SOLV      9073            0.0000000000
     27334      9085  TIP3      OH2           -23.0118203985       27.1408042534       20.1949553365  SOLV      9074            0.0000000000
     27335      9085  TIP3      H1            -22.1616803985       27.5618942534       20.3221153365  SOLV      9074            0.0000000000
     27336      9085  TIP3      H2            -23.0063103985       26.4008142534       20.8020953365  SOLV      9074            0.0000000000
     27337      9086  TIP3      OH2           -22.6172603985       25.1945442534       22.0185253365  SOLV      9075            0.0000000000
     27338      9086  TIP3      H1            -23.3438003985       24.7148042534       22.4162853365  SOLV      9075            0.0000000000
     27339      9086  TIP3      H2            -22.0359303985       25.4000142534       22.7506853365  SOLV      9075            0.0000000000
     27340      9087  TIP3      OH2           -22.3489503985       25.0953942534       18.4096553365  SOLV      9076            0.0000000000
     27341      9087  TIP3      H1            -22.8708403985       25.4518042534       17.6907453365  SOLV      9076            0.0000000000
     27342      9087  TIP3      H2            -22.3820303985       25.7701742534       19.0877453365  SOLV      9076            0.0000000000
     27343      9088  TIP3      OH2           -24.0000503985       22.3349542534       16.9603653365  SOLV      9077            0.0000000000
     27344      9088  TIP3      H1            -23.9036103985       23.0016542534       16.2803353365  SOLV      9077            0.0000000000
     27345      9088  TIP3      H2            -24.1400903985       21.5195842534       16.4789153365  SOLV      9077            0.0000000000
     27346      9089  TIP3      OH2           -24.8305803985       23.7151942534       22.5813953365  SOLV      9078            0.0000000000
     27347      9089  TIP3      H1            -24.9807003985       22.7700542534       22.5611753365  SOLV      9078            0.0000000000
     27348      9089  TIP3      H2            -25.1841303985       23.9963342534       23.4253053365  SOLV      9078            0.0000000000
     27349      9090  TIP3      OH2           -24.7526703985       19.7429342534       16.0779153365  SOLV      9079            0.0000000000
     27350      9090  TIP3      H1            -24.1420903985       19.3716142534       16.7147353365  SOLV      9079            0.0000000000
     27351      9090  TIP3      H2            -25.5895203985       19.3216242534       16.2739153365  SOLV      9079            0.0000000000
     27352      9091  TIP3      OH2           -25.1201003985       21.2977742534       21.0439053365  SOLV      9080            0.0000000000
     27353      9091  TIP3      H1            -24.8403903985       20.3908142534       21.1680753365  SOLV      9080            0.0000000000
     27354      9091  TIP3      H2            -24.3609303985       21.7319242534       20.6548253365  SOLV      9080            0.0000000000
     27355      9092  TIP3      OH2           -24.5082703985       21.8795142534       26.4797953365  SOLV      9081            0.0000000000
     27356      9092  TIP3      H1            -23.5754703985       22.0915042534       26.4453953365  SOLV      9081            0.0000000000
     27357      9092  TIP3      H2            -24.7435203985       21.9807242534       27.4020953365  SOLV      9081            0.0000000000
     27358      9093  TIP3      OH2           -24.5066203985       18.5607042534       21.0921053365  SOLV      9082            0.0000000000
     27359      9093  TIP3      H1            -24.3241203985       18.1118542534       21.9176053365  SOLV      9082            0.0000000000
     27360      9093  TIP3      H2            -25.1063303985       17.9761442534       20.6285653365  SOLV      9082            0.0000000000
     27361      9094  TIP3      OH2           -22.6400003985       18.6285142534       17.6201353365  SOLV      9083            0.0000000000
     27362      9094  TIP3      H1            -22.2277403985       17.9070842534       17.1449353365  SOLV      9083            0.0000000000
     27363      9094  TIP3      H2            -21.9583503985       19.2979742534       17.6785653365  SOLV      9083            0.0000000000
     27364      9095  TIP3      OH2           -23.6756103985       16.7951542534       30.7774453365  SOLV      9084            0.0000000000
     27365      9095  TIP3      H1            -24.4882603985       17.1201842534       30.3899153365  SOLV      9084            0.0000000000
     27366      9095  TIP3      H2            -23.4427603985       16.0350042534       30.2443553365  SOLV      9084            0.0000000000
     27367      9096  TIP3      OH2           -30.2457603985       18.2442142534       25.1002653365  SOLV      9085            0.0000000000
     27368      9096  TIP3      H1            -30.9200803985       17.6147742534       25.3558453365  SOLV      9085            0.0000000000
     27369      9096  TIP3      H2            -29.6818403985       17.7601042534       24.4970553365  SOLV      9085            0.0000000000
     27370      9097  TIP3      OH2           -25.1030403985       16.3516142534       25.2129753365  SOLV      9086            0.0000000000
     27371      9097  TIP3      H1            -24.4992803985       16.8991542534       24.7110753365  SOLV      9086            0.0000000000
     27372      9097  TIP3      H2            -25.9728403985       16.6706542534       24.9723853365  SOLV      9086            0.0000000000
     27373      9098  TIP3      OH2           -23.3760003985       17.4904842534       23.5460653365  SOLV      9087            0.0000000000
     27374      9098  TIP3      H1            -22.7642503985       16.9760542534       23.0194253365  SOLV      9087            0.0000000000
     27375      9098  TIP3      H2            -22.9936603985       18.3676942534       23.5695053365  SOLV      9087            0.0000000000
     27376      9099  TIP3      OH2           -33.3397503985       16.8049542534       22.7355653365  SOLV      9088            0.0000000000
     27377      9099  TIP3      H1            -32.4654103985       17.1933842534       22.7059953365  SOLV      9088            0.0000000000
     27378      9099  TIP3      H2            -33.4756703985       16.5897342534       23.6582853365  SOLV      9088            0.0000000000
     27379      9100  TIP3      OH2           -27.7829103985       16.8349342534       24.3847353365  SOLV      9089            0.0000000000
     27380      9100  TIP3      H1            -27.7067503985       16.9300942534       23.4353353365  SOLV      9089            0.0000000000
     27381      9100  TIP3      H2            -28.0579903985       15.9272242534       24.5136453365  SOLV      9089            0.0000000000
     27382      9101  TIP3      OH2           -26.4296503985       16.8607142534       20.0772353365  SOLV      9090            0.0000000000
     27383      9101  TIP3      H1            -27.1325403985       17.4756342534       19.8673753365  SOLV      9090            0.0000000000
     27384      9101  TIP3      H2            -26.8745103985       16.0233842534       20.2083253365  SOLV      9090            0.0000000000
     27385      9102  TIP3      OH2           -32.1957503985       18.8853542534       19.6253253365  SOLV      9091            0.0000000000
     27386      9102  TIP3      H1            -32.0176203985       18.2386742534       20.3081853365  SOLV      9091            0.0000000000
     27387      9102  TIP3      H2            -32.2491303985       19.7191242534       20.0924353365  SOLV      9091            0.0000000000
     27388      9103  TIP3      OH2            -9.9847503985       26.0344742534       22.8810053365  SOLV      9092            0.0000000000
     27389      9103  TIP3      H1             -9.8956403985       26.9782942534       22.7487153365  SOLV      9092            0.0000000000
     27390      9103  TIP3      H2            -10.6229903985       25.7591142534       22.2229453365  SOLV      9092            0.0000000000
     27391      9104  TIP3      OH2           -11.0516203985       25.2895442534       26.2998253365  SOLV      9093            0.0000000000
     27392      9104  TIP3      H1            -11.0898703985       24.6431742534       27.0047853365  SOLV      9093            0.0000000000
     27393      9104  TIP3      H2            -11.3739703985       24.8229842534       25.5286953365  SOLV      9093            0.0000000000
     27394      9105  TIP3      OH2           -18.6831203985       24.9037542534       27.8928153365  SOLV      9094            0.0000000000
     27395      9105  TIP3      H1            -18.6419103985       24.2780842534       28.6160553365  SOLV      9094            0.0000000000
     27396      9105  TIP3      H2            -17.9803503985       25.5276142534       28.0748553365  SOLV      9094            0.0000000000
     27397      9106  TIP3      OH2            -7.3456003985       28.2285842534       24.6013353365  SOLV      9095            0.0000000000
     27398      9106  TIP3      H1             -7.7863303985       27.5081842534       25.0518953365  SOLV      9095            0.0000000000
     27399      9106  TIP3      H2             -7.3586303985       28.9493042534       25.2311053365  SOLV      9095            0.0000000000
     27400      9107  TIP3      OH2           -17.7598103985       29.3536442534       26.4277253365  SOLV      9096            0.0000000000
     27401      9107  TIP3      H1            -18.1292903985       28.5516942534       26.0581553365  SOLV      9096            0.0000000000
     27402      9107  TIP3      H2            -16.8187003985       29.1851342534       26.4740653365  SOLV      9096            0.0000000000
     27403      9108  TIP3      OH2           -21.1497603985       23.0139042534       21.8206053365  SOLV      9097            0.0000000000
     27404      9108  TIP3      H1            -21.5974203985       23.8597742534       21.8022553365  SOLV      9097            0.0000000000
     27405      9108  TIP3      H2            -21.7106403985       22.4343242534       21.3051153365  SOLV      9097            0.0000000000
     27406      9109  TIP3      OH2           -20.4391503985       25.1758642534       23.9464053365  SOLV      9098            0.0000000000
     27407      9109  TIP3      H1            -20.2258003985       24.4060242534       24.4737053365  SOLV      9098            0.0000000000
     27408      9109  TIP3      H2            -19.7013903985       25.2655342534       23.3431653365  SOLV      9098            0.0000000000
     27409      9110  TIP3      OH2           -10.2340503985       33.3327542534       24.8133753365  SOLV      9099            0.0000000000
     27410      9110  TIP3      H1             -9.6144103985       32.6562242534       24.5402953365  SOLV      9099            0.0000000000
     27411      9110  TIP3      H2            -10.4423103985       33.1148342534       25.7218653365  SOLV      9099            0.0000000000
     27412      9111  TIP3      OH2           -12.6621803985       27.7216842534       26.7059253365  SOLV      9100            0.0000000000
     27413      9111  TIP3      H1            -12.3583903985       27.0358242534       26.1113353365  SOLV      9100            0.0000000000
     27414      9111  TIP3      H2            -11.9407803985       27.8405542534       27.3237253365  SOLV      9100            0.0000000000
     27415      9112  TIP3      OH2            -3.9992003985       19.3232142534       27.5665453365  SOLV      9101            0.0000000000
     27416      9112  TIP3      H1             -3.9499803985       19.9333342534       28.3024553365  SOLV      9101            0.0000000000
     27417      9112  TIP3      H2             -3.5736903985       19.7843042534       26.8436553365  SOLV      9101            0.0000000000
     27418      9113  TIP3      OH2            -9.5214803985       22.1159242534       27.0334053365  SOLV      9102            0.0000000000
     27419      9113  TIP3      H1             -9.3788903985       21.1696242534       27.0535653365  SOLV      9102            0.0000000000
     27420      9113  TIP3      H2             -9.6275803985       22.3229042534       26.1048953365  SOLV      9102            0.0000000000
     27421      9114  TIP3      OH2           -16.3666503985       20.2175642534       24.3058853365  SOLV      9103            0.0000000000
     27422      9114  TIP3      H1            -16.3235403985       21.0774142534       23.8875153365  SOLV      9103            0.0000000000
     27423      9114  TIP3      H2            -16.8242403985       19.6650342534       23.6722053365  SOLV      9103            0.0000000000
     27424      9115  TIP3      OH2            -8.6443803985       20.3481242534       22.7067153365  SOLV      9104            0.0000000000
     27425      9115  TIP3      H1             -7.9979503985       20.0194442534       23.3314753365  SOLV      9104            0.0000000000
     27426      9115  TIP3      H2             -8.1344403985       20.8660242534       22.0838553365  SOLV      9104            0.0000000000
     27427      9116  TIP3      OH2           -19.7465003985       22.6141442534       25.0680253365  SOLV      9105            0.0000000000
     27428      9116  TIP3      H1            -19.0928403985       22.0643142534       25.5000353365  SOLV      9105            0.0000000000
     27429      9116  TIP3      H2            -19.7225703985       22.3400442534       24.1512253365  SOLV      9105            0.0000000000
     27430      9117  TIP3      OH2           -14.5900503985       24.1642742534       24.2831753365  SOLV      9106            0.0000000000
     27431      9117  TIP3      H1            -13.9739503985       23.6378142534       24.7925753365  SOLV      9106            0.0000000000
     27432      9117  TIP3      H2            -15.1761703985       23.5241442534       23.8795353365  SOLV      9106            0.0000000000
     27433      9118  TIP3      OH2            -3.6077403985       20.8011342534       29.8025253365  SOLV      9107            0.0000000000
     27434      9118  TIP3      H1             -4.2962803985       21.4592042534       29.7071853365  SOLV      9107            0.0000000000
     27435      9118  TIP3      H2             -3.5922803985       20.6039242534       30.7390653365  SOLV      9107            0.0000000000
     27436      9119  TIP3      OH2           -17.5564603985       19.1354042534       28.3799653365  SOLV      9108            0.0000000000
     27437      9119  TIP3      H1            -17.7752903985       19.6654642534       27.6135653365  SOLV      9108            0.0000000000
     27438      9119  TIP3      H2            -18.2243703985       19.3619542534       29.0271053365  SOLV      9108            0.0000000000
     27439      9120  TIP3      OH2           -10.1874803985       28.6355142534       21.9238753365  SOLV      9109            0.0000000000
     27440      9120  TIP3      H1            -10.4829703985       28.3127442534       21.0725653365  SOLV      9109            0.0000000000
     27441      9120  TIP3      H2            -10.5117003985       29.5351842534       21.9651353365  SOLV      9109            0.0000000000
     27442      9121  TIP3      OH2           -14.9873203985       26.8109742534       28.6673353365  SOLV      9110            0.0000000000
     27443      9121  TIP3      H1            -15.7274103985       27.4091242534       28.7708553365  SOLV      9110            0.0000000000
     27444      9121  TIP3      H2            -14.2733703985       27.3649342534       28.3516953365  SOLV      9110            0.0000000000
     27445      9122  TIP3      OH2            -6.8805403985       19.6390542534       24.6873053365  SOLV      9111            0.0000000000
     27446      9122  TIP3      H1             -7.0957403985       18.8733942534       25.2199053365  SOLV      9111            0.0000000000
     27447      9122  TIP3      H2             -6.2248003985       20.1115142534       25.2001553365  SOLV      9111            0.0000000000
     27448      9123  TIP3      OH2           -17.9627303985       21.0275842534       26.3321853365  SOLV      9112            0.0000000000
     27449      9123  TIP3      H1            -17.3491003985       21.6603442534       26.7054253365  SOLV      9112            0.0000000000
     27450      9123  TIP3      H2            -17.4506603985       20.5550842534       25.6758753365  SOLV      9112            0.0000000000
     27451      9124  TIP3      OH2           -20.4588003985       28.4460642534       20.2364153365  SOLV      9113            0.0000000000
     27452      9124  TIP3      H1            -20.7307103985       28.6751642534       19.3477053365  SOLV      9113            0.0000000000
     27453      9124  TIP3      H2            -20.4132303985       29.2839442534       20.6969453365  SOLV      9113            0.0000000000
     27454      9125  TIP3      OH2            -6.8338303985       30.0676542534       26.9492653365  SOLV      9114            0.0000000000
     27455      9125  TIP3      H1             -7.7754603985       30.1260442534       27.1109553365  SOLV      9114            0.0000000000
     27456      9125  TIP3      H2             -6.5572203985       30.9737042534       26.8122353365  SOLV      9114            0.0000000000
     27457      9126  TIP3      OH2            -6.5331303985       18.3541842534       28.3666553365  SOLV      9115            0.0000000000
     27458      9126  TIP3      H1             -7.2692103985       18.9648942534       28.3287853365  SOLV      9115            0.0000000000
     27459      9126  TIP3      H2             -5.8497303985       18.7690842534       27.8402953365  SOLV      9115            0.0000000000
     27460      9127  TIP3      OH2           -13.5299903985       16.4409142534       25.8324553365  SOLV      9116            0.0000000000
     27461      9127  TIP3      H1            -13.6475703985       15.4925142534       25.7782853365  SOLV      9116            0.0000000000
     27462      9127  TIP3      H2            -14.3849803985       16.7735242534       26.1055653365  SOLV      9116            0.0000000000
     27463      9128  TIP3      OH2            -8.5817103985       31.8490042534       23.5744253365  SOLV      9117            0.0000000000
     27464      9128  TIP3      H1             -8.1564803985       31.1417942534       23.0893853365  SOLV      9117            0.0000000000
     27465      9128  TIP3      H2             -8.2647103985       32.6502742534       23.1576453365  SOLV      9117            0.0000000000
     27466      9129  TIP3      OH2            -7.4220603985       29.7498542534       22.0830853365  SOLV      9118            0.0000000000
     27467      9129  TIP3      H1             -7.6795803985       29.0598642534       21.4716753365  SOLV      9118            0.0000000000
     27468      9129  TIP3      H2             -7.3509803985       29.3069742534       22.9286753365  SOLV      9118            0.0000000000
     27469      9130  TIP3      OH2            -5.7360403985       28.3165242534       30.5604353365  SOLV      9119            0.0000000000
     27470      9130  TIP3      H1             -5.5964103985       27.7247742534       29.8211353365  SOLV      9119            0.0000000000
     27471      9130  TIP3      H2             -5.5687603985       29.1891142534       30.2043153365  SOLV      9119            0.0000000000
     27472      9131  TIP3      OH2           -11.2635003985       25.2784742534       20.3330353365  SOLV      9120            0.0000000000
     27473      9131  TIP3      H1            -11.9749503985       25.8134442534       19.9810853365  SOLV      9120            0.0000000000
     27474      9131  TIP3      H2            -10.5725403985       25.3336842534       19.6729253365  SOLV      9120            0.0000000000
     27475      9132  TIP3      OH2           -11.2095803985       23.7359042534       17.3715353365  SOLV      9121            0.0000000000
     27476      9132  TIP3      H1            -10.5085903985       23.7585942534       18.0229353365  SOLV      9121            0.0000000000
     27477      9132  TIP3      H2            -10.9072903985       23.1078742534       16.7154653365  SOLV      9121            0.0000000000
     27478      9133  TIP3      OH2            -3.8941103985       24.6563242534       28.6264753365  SOLV      9122            0.0000000000
     27479      9133  TIP3      H1             -4.5467003985       25.3508842534       28.7155653365  SOLV      9122            0.0000000000
     27480      9133  TIP3      H2             -3.4290803985       24.8664142534       27.8166353365  SOLV      9122            0.0000000000
     27481      9134  TIP3      OH2            -7.8577303985       25.4878042534       21.2846253365  SOLV      9123            0.0000000000
     27482      9134  TIP3      H1             -8.5896303985       25.7161742534       21.8576853365  SOLV      9123            0.0000000000
     27483      9134  TIP3      H2             -7.4105103985       24.7740742534       21.7393753365  SOLV      9123            0.0000000000
     27484      9135  TIP3      OH2            -7.9603803985       23.6620642534       30.3523253365  SOLV      9124            0.0000000000
     27485      9135  TIP3      H1             -7.8804703985       24.4255042534       30.9241753365  SOLV      9124            0.0000000000
     27486      9135  TIP3      H2             -8.5616103985       23.9413042534       29.6618353365  SOLV      9124            0.0000000000
     27487      9136  TIP3      OH2           -16.2123603985       26.1184242534       23.1671253365  SOLV      9125            0.0000000000
     27488      9136  TIP3      H1            -16.5428403985       25.7477642534       22.3488253365  SOLV      9125            0.0000000000
     27489      9136  TIP3      H2            -15.6239503985       25.4478242534       23.5139553365  SOLV      9125            0.0000000000
     27490      9137  TIP3      OH2           -14.8456103985       29.5464842534       25.8483453365  SOLV      9126            0.0000000000
     27491      9137  TIP3      H1            -14.9404803985       28.9677942534       25.0918053365  SOLV      9126            0.0000000000
     27492      9137  TIP3      H2            -14.1162503985       29.1750542534       26.3446253365  SOLV      9126            0.0000000000
     27493      9138  TIP3      OH2           -15.8458103985       24.8869842534       26.8006253365  SOLV      9127            0.0000000000
     27494      9138  TIP3      H1            -15.2805603985       25.0084042534       26.0377453365  SOLV      9127            0.0000000000
     27495      9138  TIP3      H2            -15.5269203985       25.5244842534       27.4394753365  SOLV      9127            0.0000000000
     27496      9139  TIP3      OH2            -9.5365903985       30.3901742534       27.5346753365  SOLV      9128            0.0000000000
     27497      9139  TIP3      H1             -9.7769303985       31.0524842534       28.1825953365  SOLV      9128            0.0000000000
     27498      9139  TIP3      H2             -9.7347703985       29.5556942534       27.9596353365  SOLV      9128            0.0000000000
     27499      9140  TIP3      OH2            -8.9867803985       24.6500942534       18.9697453365  SOLV      9129            0.0000000000
     27500      9140  TIP3      H1             -8.4072303985       24.8001242534       19.7166353365  SOLV      9129            0.0000000000
     27501      9140  TIP3      H2             -8.5727803985       25.1208342534       18.2463853365  SOLV      9129            0.0000000000
     27502      9141  TIP3      OH2           -11.2602903985       31.3869442534       22.4050553365  SOLV      9130            0.0000000000
     27503      9141  TIP3      H1            -10.7865303985       31.6825742534       23.1824753365  SOLV      9130            0.0000000000
     27504      9141  TIP3      H2            -11.8233603985       32.1251042534       22.1720153365  SOLV      9130            0.0000000000
     27505      9142  TIP3      OH2            -5.2879403985       16.4001342534       18.7827153365  SOLV      9131            0.0000000000
     27506      9142  TIP3      H1             -6.1878703985       16.5390342534       19.0777753365  SOLV      9131            0.0000000000
     27507      9142  TIP3      H2             -5.0361003985       17.2315942534       18.3808853365  SOLV      9131            0.0000000000
     27508      9143  TIP3      OH2           -17.2220903985       25.1878542534       20.7564053365  SOLV      9132            0.0000000000
     27509      9143  TIP3      H1            -17.5139603985       25.9560242534       20.2655353365  SOLV      9132            0.0000000000
     27510      9143  TIP3      H2            -17.8965703985       24.5284742534       20.5935453365  SOLV      9132            0.0000000000
     27511      9144  TIP3      OH2            -4.0988003985       30.7663742534       17.1591053365  SOLV      9133            0.0000000000
     27512      9144  TIP3      H1             -4.0254503985       31.7053942534       17.3296353365  SOLV      9133            0.0000000000
     27513      9144  TIP3      H2             -3.1932903985       30.4612342534       17.1028353365  SOLV      9133            0.0000000000
     27514      9145  TIP3      OH2           -11.7879803985       34.3434142534       20.8199753365  SOLV      9134            0.0000000000
     27515      9145  TIP3      H1            -11.8633803985       34.2221342534       19.8734953365  SOLV      9134            0.0000000000
     27516      9145  TIP3      H2            -11.7551103985       35.2926842534       20.9384353365  SOLV      9134            0.0000000000
     27517      9146  TIP3      OH2           -18.1346003985       33.1321142534       22.6008753365  SOLV      9135            0.0000000000
     27518      9146  TIP3      H1            -17.9825603985       32.7841542534       23.4795253365  SOLV      9135            0.0000000000
     27519      9146  TIP3      H2            -18.9855603985       32.7758442534       22.3455953365  SOLV      9135            0.0000000000
     27520      9147  TIP3      OH2            -8.6863803985       33.4974342534       17.8222153365  SOLV      9136            0.0000000000
     27521      9147  TIP3      H1             -8.3115403985       32.7530442534       17.3514753365  SOLV      9136            0.0000000000
     27522      9147  TIP3      H2             -8.6820103985       33.2274942534       18.7405453365  SOLV      9136            0.0000000000
     27523      9148  TIP3      OH2            -9.0175703985       33.4231442534       20.5714353365  SOLV      9137            0.0000000000
     27524      9148  TIP3      H1             -9.9525903985       33.5233342534       20.7501353365  SOLV      9137            0.0000000000
     27525      9148  TIP3      H2             -8.7373803985       32.7137442534       21.1497553365  SOLV      9137            0.0000000000
     27526      9149  TIP3      OH2            -6.0289803985       22.4903742534       32.6179953365  SOLV      9138            0.0000000000
     27527      9149  TIP3      H1             -6.4363003985       22.9709342534       31.8973253365  SOLV      9138            0.0000000000
     27528      9149  TIP3      H2             -5.9884103985       21.5849742534       32.3100753365  SOLV      9138            0.0000000000
     27529      9150  TIP3      OH2           -16.2612303985       17.3443642534       26.6100853365  SOLV      9139            0.0000000000
     27530      9150  TIP3      H1            -17.1228603985       17.2571842534       26.2023753365  SOLV      9139            0.0000000000
     27531      9150  TIP3      H2            -16.2836603985       18.2003742534       27.0378453365  SOLV      9139            0.0000000000
     27532      9151  TIP3      OH2           -11.5984503985       17.0664042534       29.9847853365  SOLV      9140            0.0000000000
     27533      9151  TIP3      H1            -11.1781403985       16.6511142534       30.7378453365  SOLV      9140            0.0000000000
     27534      9151  TIP3      H2            -12.5314903985       16.8877342534       30.1019853365  SOLV      9140            0.0000000000
     27535      9152  TIP3      OH2            -8.2719603985       20.8219242534       30.8382353365  SOLV      9141            0.0000000000
     27536      9152  TIP3      H1             -8.7860103985       20.6961442534       31.6358353365  SOLV      9141            0.0000000000
     27537      9152  TIP3      H2             -8.4274903985       21.7342342534       30.5938553365  SOLV      9141            0.0000000000
     27538      9153  TIP3      OH2            -7.5094703985       25.6829242534       16.5995353365  SOLV      9142            0.0000000000
     27539      9153  TIP3      H1             -7.4673903985       25.4603142534       15.6695353365  SOLV      9142            0.0000000000
     27540      9153  TIP3      H2             -6.6602603985       26.0816342534       16.7895253365  SOLV      9142            0.0000000000
     27541      9154  TIP3      OH2           -11.9367203985       19.5587442534       17.2698653365  SOLV      9143            0.0000000000
     27542      9154  TIP3      H1            -12.1902403985       19.5779042534       18.1926753365  SOLV      9143            0.0000000000
     27543      9154  TIP3      H2            -12.1935103985       18.6872842534       16.9684853365  SOLV      9143            0.0000000000
     27544      9155  TIP3      OH2           -16.1702203985       22.3098142534       27.7051053365  SOLV      9144            0.0000000000
     27545      9155  TIP3      H1            -16.8120103985       22.2695442534       28.4141153365  SOLV      9144            0.0000000000
     27546      9155  TIP3      H2            -16.1330203985       23.2362842534       27.4674053365  SOLV      9144            0.0000000000
     27547      9156  TIP3      OH2           -16.1733103985       22.5308242534       22.6171053365  SOLV      9145            0.0000000000
     27548      9156  TIP3      H1            -17.0660203985       22.1904342534       22.5584853365  SOLV      9145            0.0000000000
     27549      9156  TIP3      H2            -15.7226503985       22.1539142534       21.8614253365  SOLV      9145            0.0000000000
     27550      9157  TIP3      OH2           -10.6377603985       22.9468542534       21.4341853365  SOLV      9146            0.0000000000
     27551      9157  TIP3      H1            -11.0467303985       23.7617142534       21.1426653365  SOLV      9146            0.0000000000
     27552      9157  TIP3      H2             -9.9171403985       22.8068642534       20.8198953365  SOLV      9146            0.0000000000
     27553      9158  TIP3      OH2           -11.5356003985       23.1224942534       32.9222553365  SOLV      9147            0.0000000000
     27554      9158  TIP3      H1            -12.0982203985       22.4176542534       33.2430353365  SOLV      9147            0.0000000000
     27555      9158  TIP3      H2            -10.7092603985       23.0016842534       33.3900153365  SOLV      9147            0.0000000000
     27556      9159  TIP3      OH2            -9.6329903985       22.3928942534       24.2481553365  SOLV      9148            0.0000000000
     27557      9159  TIP3      H1             -9.8285403985       22.9985742534       23.5332153365  SOLV      9148            0.0000000000
     27558      9159  TIP3      H2             -9.4517303985       21.5594142534       23.8137853365  SOLV      9148            0.0000000000
     27559      9160  TIP3      OH2           -18.4201703985       22.6301642534       29.5723053365  SOLV      9149            0.0000000000
     27560      9160  TIP3      H1            -18.4582303985       23.0303242534       30.4410153365  SOLV      9149            0.0000000000
     27561      9160  TIP3      H2            -18.9110603985       21.8134042534       29.6625953365  SOLV      9149            0.0000000000
     27562      9161  TIP3      OH2           -15.0544303985       20.0043942534       16.3709053365  SOLV      9150            0.0000000000
     27563      9161  TIP3      H1            -15.4853603985       19.5594042534       17.1006453365  SOLV      9150            0.0000000000
     27564      9161  TIP3      H2            -15.7725603985       20.3760242534       15.8586553365  SOLV      9150            0.0000000000
     27565      9162  TIP3      OH2           -21.8120903985       19.7463442534       23.4227753365  SOLV      9151            0.0000000000
     27566      9162  TIP3      H1            -21.1813203985       19.7175542534       24.1421653365  SOLV      9151            0.0000000000
     27567      9162  TIP3      H2            -21.3626603985       19.3212142534       22.6923653365  SOLV      9151            0.0000000000
     27568      9163  TIP3      OH2           -20.5378803985       20.4925442534       18.8468153365  SOLV      9152            0.0000000000
     27569      9163  TIP3      H1            -20.0637103985       21.0835342534       18.2619053365  SOLV      9152            0.0000000000
     27570      9163  TIP3      H2            -21.2552403985       21.0228342534       19.1938253365  SOLV      9152            0.0000000000
     27571      9164  TIP3      OH2           -10.3690703985       24.0310242534       28.9193953365  SOLV      9153            0.0000000000
     27572      9164  TIP3      H1            -10.0455903985       23.3999942534       28.2764453365  SOLV      9153            0.0000000000
     27573      9164  TIP3      H2            -10.8091403985       23.4962442534       29.5801353365  SOLV      9153            0.0000000000
     27574      9165  TIP3      OH2           -13.5917803985       19.9585742534       23.7035153365  SOLV      9154            0.0000000000
     27575      9165  TIP3      H1            -14.5026703985       20.0152542534       23.9921153365  SOLV      9154            0.0000000000
     27576      9165  TIP3      H2            -13.0864903985       19.8981242534       24.5142353365  SOLV      9154            0.0000000000
     27577      9166  TIP3      OH2           -18.7634403985       21.5872042534       22.5302753365  SOLV      9155            0.0000000000
     27578      9166  TIP3      H1            -19.6526403985       21.6867542534       22.1902353365  SOLV      9155            0.0000000000
     27579      9166  TIP3      H2            -18.4669503985       20.7455042534       22.1840653365  SOLV      9155            0.0000000000
     27580      9167  TIP3      OH2           -15.1102603985       21.5874642534       20.1867353365  SOLV      9156            0.0000000000
     27581      9167  TIP3      H1            -14.1787103985       21.7164642534       20.3650453365  SOLV      9156            0.0000000000
     27582      9167  TIP3      H2            -15.3252303985       22.2568942534       19.5372053365  SOLV      9156            0.0000000000
     27583      9168  TIP3      OH2            -9.1865903985       19.1932042534       26.9676953365  SOLV      9157            0.0000000000
     27584      9168  TIP3      H1             -9.8634303985       19.3245142534       27.6316653365  SOLV      9157            0.0000000000
     27585      9168  TIP3      H2             -9.6721003985       19.0381542534       26.1574653365  SOLV      9157            0.0000000000
     27586      9169  TIP3      OH2           -16.4362403985       22.7816842534       17.7533453365  SOLV      9158            0.0000000000
     27587      9169  TIP3      H1            -16.9787303985       22.4020642534       17.0621053365  SOLV      9158            0.0000000000
     27588      9169  TIP3      H2            -15.6027503985       22.9761542534       17.3247553365  SOLV      9158            0.0000000000
     27589      9170  TIP3      OH2           -12.2718103985       22.7458742534       25.5904753365  SOLV      9159            0.0000000000
     27590      9170  TIP3      H1            -11.7074703985       22.1995342534       25.0434353365  SOLV      9159            0.0000000000
     27591      9170  TIP3      H2            -12.4194703985       22.2240642534       26.3792353365  SOLV      9159            0.0000000000
     27592      9171  TIP3      OH2           -17.2698403985       18.8824842534       22.0089553365  SOLV      9160            0.0000000000
     27593      9171  TIP3      H1            -17.5868903985       17.9800142534       21.9734953365  SOLV      9160            0.0000000000
     27594      9171  TIP3      H2            -16.4884303985       18.8842242534       21.4561153365  SOLV      9160            0.0000000000
     27595      9172  TIP3      OH2           -13.6452203985       21.1344842534       28.0045153365  SOLV      9161            0.0000000000
     27596      9172  TIP3      H1            -14.4806903985       21.5884342534       28.1147553365  SOLV      9161            0.0000000000
     27597      9172  TIP3      H2            -13.1211603985       21.4103342534       28.7565053365  SOLV      9161            0.0000000000
     27598      9173  TIP3      OH2           -13.1009603985       27.3472542534       19.6891553365  SOLV      9162            0.0000000000
     27599      9173  TIP3      H1            -13.8458603985       26.8397842534       19.3669453365  SOLV      9162            0.0000000000
     27600      9173  TIP3      H2            -13.2352403985       27.3960542534       20.6356353365  SOLV      9162            0.0000000000
     27601      9174  TIP3      OH2            -5.9510703985       26.4800742534       28.4759153365  SOLV      9163            0.0000000000
     27602      9174  TIP3      H1             -5.3091903985       26.9367042534       27.9321353365  SOLV      9163            0.0000000000
     27603      9174  TIP3      H2             -6.7813803985       26.5933142534       28.0133253365  SOLV      9163            0.0000000000
     27604      9175  TIP3      OH2            -9.2032803985       20.1612442534       17.8884153365  SOLV      9164            0.0000000000
     27605      9175  TIP3      H1            -10.1418603985       20.2728042534       17.7372953365  SOLV      9164            0.0000000000
     27606      9175  TIP3      H2             -8.9060703985       21.0179342534       18.1949853365  SOLV      9164            0.0000000000
     27607      9176  TIP3      OH2            -8.4849303985       22.0285142534       19.5491553365  SOLV      9165            0.0000000000
     27608      9176  TIP3      H1             -7.5930303985       21.8910142534       19.8682753365  SOLV      9165            0.0000000000
     27609      9176  TIP3      H2             -8.4285703985       22.8191242534       19.0125053365  SOLV      9165            0.0000000000
     27610      9177  TIP3      OH2           -17.9761303985       26.6422542534       25.4589453365  SOLV      9166            0.0000000000
     27611      9177  TIP3      H1            -17.2314103985       26.6398242534       24.8575953365  SOLV      9166            0.0000000000
     27612      9177  TIP3      H2            -17.8984703985       25.8186342534       25.9404553365  SOLV      9166            0.0000000000
     27613      9178  TIP3      OH2           -10.9755503985       28.8056842534       18.7146153365  SOLV      9167            0.0000000000
     27614      9178  TIP3      H1            -11.2707103985       29.6324742534       19.0960953365  SOLV      9167            0.0000000000
     27615      9178  TIP3      H2            -11.6785503985       28.1863742534       18.9107553365  SOLV      9167            0.0000000000
     27616      9179  TIP3      OH2            -3.6000603985       22.2379242534       19.2438253365  SOLV      9168            0.0000000000
     27617      9179  TIP3      H1             -4.1544303985       21.8417242534       18.5715753365  SOLV      9168            0.0000000000
     27618      9179  TIP3      H2             -3.4997003985       23.1484442534       18.9661553365  SOLV      9168            0.0000000000
     27619      9180  TIP3      OH2            -3.6368603985       28.0380942534       32.0809753365  SOLV      9169            0.0000000000
     27620      9180  TIP3      H1             -4.4880103985       28.2764742534       31.7136153365  SOLV      9169            0.0000000000
     27621      9180  TIP3      H2             -3.0465203985       28.0214142534       31.3276853365  SOLV      9169            0.0000000000
     27622      9181  TIP3      OH2            -5.3048903985       31.0239642534       19.7090353365  SOLV      9170            0.0000000000
     27623      9181  TIP3      H1             -5.6777803985       30.1983442534       20.0180953365  SOLV      9170            0.0000000000
     27624      9181  TIP3      H2             -5.0275403985       30.8409042534       18.8113753365  SOLV      9170            0.0000000000
     27625      9182  TIP3      OH2            -8.1445003985       25.8319142534       26.7302253365  SOLV      9171            0.0000000000
     27626      9182  TIP3      H1             -9.0728103985       25.6001042534       26.7031553365  SOLV      9171            0.0000000000
     27627      9182  TIP3      H2             -7.6933903985       25.0548942534       26.4001053365  SOLV      9171            0.0000000000
     27628      9183  TIP3      OH2           -15.6011903985       30.1600742534       22.8630953365  SOLV      9172            0.0000000000
     27629      9183  TIP3      H1            -15.0739703985       30.9335142534       22.6629753365  SOLV      9172            0.0000000000
     27630      9183  TIP3      H2            -16.4813403985       30.3849942534       22.5614953365  SOLV      9172            0.0000000000
     27631      9184  TIP3      OH2           -19.8464203985       25.0224842534       17.4503353365  SOLV      9173            0.0000000000
     27632      9184  TIP3      H1            -19.2304303985       25.6492042534       17.8298153365  SOLV      9173            0.0000000000
     27633      9184  TIP3      H2            -20.7081603985       25.3384642534       17.7219853365  SOLV      9173            0.0000000000
     27634      9185  TIP3      OH2           -14.1739603985       27.8230642534       22.4395253365  SOLV      9174            0.0000000000
     27635      9185  TIP3      H1            -14.4149603985       28.7485042534       22.4810553365  SOLV      9174            0.0000000000
     27636      9185  TIP3      H2            -14.9146003985       27.3641942534       22.8359153365  SOLV      9174            0.0000000000
     27637      9186  TIP3      OH2           -15.4908803985       32.8448242534       21.9847453365  SOLV      9175            0.0000000000
     27638      9186  TIP3      H1            -16.4408303985       32.9505642534       22.0360753365  SOLV      9175            0.0000000000
     27639      9186  TIP3      H2            -15.1390703985       33.6655642534       22.3294953365  SOLV      9175            0.0000000000
     27640      9187  TIP3      OH2           -10.1152203985       28.0714942534       28.4551953365  SOLV      9176            0.0000000000
     27641      9187  TIP3      H1            -10.5410903985       27.8436642534       29.2815953365  SOLV      9176            0.0000000000
     27642      9187  TIP3      H2             -9.5346403985       27.3326742534       28.2727253365  SOLV      9176            0.0000000000
     27643      9188  TIP3      OH2            -7.9123303985       29.0005442534       17.5290953365  SOLV      9177            0.0000000000
     27644      9188  TIP3      H1             -7.5590203985       28.6205242534       18.3334453365  SOLV      9177            0.0000000000
     27645      9188  TIP3      H2             -8.8609803985       28.9070242534       17.6160253365  SOLV      9177            0.0000000000
     27646      9189  TIP3      OH2            -3.4088903985       33.4797942534       17.7301153365  SOLV      9178            0.0000000000
     27647      9189  TIP3      H1             -2.6651003985       34.0658442534       17.5902753365  SOLV      9178            0.0000000000
     27648      9189  TIP3      H2             -4.1030803985       34.0483742534       18.0633553365  SOLV      9178            0.0000000000
     27649      9190  TIP3      OH2           -19.3342103985       19.8562142534       30.3319353365  SOLV      9179            0.0000000000
     27650      9190  TIP3      H1            -20.2269803985       20.1947542534       30.2643353365  SOLV      9179            0.0000000000
     27651      9190  TIP3      H2            -19.4329303985       19.0008242534       30.7500153365  SOLV      9179            0.0000000000
     27652      9191  TIP3      OH2            -7.0464003985       27.6727442534       19.7558853365  SOLV      9180            0.0000000000
     27653      9191  TIP3      H1             -7.3236403985       26.9446742534       20.3119953365  SOLV      9180            0.0000000000
     27654      9191  TIP3      H2             -6.1191003985       27.7919442534       19.9611453365  SOLV      9180            0.0000000000
     27655      9192  TIP3      OH2           -13.8215503985       30.1121542534       15.9760953365  SOLV      9181            0.0000000000
     27656      9192  TIP3      H1            -13.5825703985       29.3639642534       15.4289853365  SOLV      9181            0.0000000000
     27657      9192  TIP3      H2            -14.0904203985       29.7243242534       16.8088753365  SOLV      9181            0.0000000000
     27658      9193  TIP3      OH2           -14.8844903985       29.6825342534       18.4323553365  SOLV      9182            0.0000000000
     27659      9193  TIP3      H1            -14.7376903985       29.1625142534       19.2224453365  SOLV      9182            0.0000000000
     27660      9193  TIP3      H2            -14.8873203985       30.5892942534       18.7389453365  SOLV      9182            0.0000000000
     27661      9194  TIP3      OH2           -18.4313803985       26.9348642534       18.9428953365  SOLV      9183            0.0000000000
     27662      9194  TIP3      H1            -19.1174503985       27.2871142534       19.5098653365  SOLV      9183            0.0000000000
     27663      9194  TIP3      H2            -17.9085903985       27.6978242534       18.6963253365  SOLV      9183            0.0000000000
     27664      9195  TIP3      OH2           -10.5998703985       19.5972442534       29.2217953365  SOLV      9184            0.0000000000
     27665      9195  TIP3      H1             -9.9010803985       19.6711142534       29.8717653365  SOLV      9184            0.0000000000
     27666      9195  TIP3      H2            -10.9807303985       18.7327442534       29.3760853365  SOLV      9184            0.0000000000
     27667      9196  TIP3      OH2            -9.8153803985       19.2494142534       20.3190253365  SOLV      9185            0.0000000000
     27668      9196  TIP3      H1             -9.5955503985       19.7209542534       19.5155653365  SOLV      9185            0.0000000000
     27669      9196  TIP3      H2             -9.2569803985       19.6436742534       20.9890853365  SOLV      9185            0.0000000000
     27670      9197  TIP3      OH2           -12.1467703985       31.3798942534       19.1817753365  SOLV      9186            0.0000000000
     27671      9197  TIP3      H1            -12.9631603985       31.8768642534       19.2342053365  SOLV      9186            0.0000000000
     27672      9197  TIP3      H2            -11.6171403985       31.8552442534       18.5416553365  SOLV      9186            0.0000000000
     27673      9198  TIP3      OH2           -12.6153903985       20.9772942534       21.1538653365  SOLV      9187            0.0000000000
     27674      9198  TIP3      H1            -11.8031303985       21.4816142534       21.2000353365  SOLV      9187            0.0000000000
     27675      9198  TIP3      H2            -12.8600903985       20.8322642534       22.0678253365  SOLV      9187            0.0000000000
     27676      9199  TIP3      OH2           -12.0797503985       21.9635642534       30.3385253365  SOLV      9188            0.0000000000
     27677      9199  TIP3      H1            -11.9607203985       22.5371042534       31.0955653365  SOLV      9188            0.0000000000
     27678      9199  TIP3      H2            -11.4242903985       21.2755042534       30.4533053365  SOLV      9188            0.0000000000
     27679      9200  TIP3      OH2           -11.7317203985       18.0585942534       22.0919753365  SOLV      9189            0.0000000000
     27680      9200  TIP3      H1            -12.0783703985       18.6756542534       22.7364053365  SOLV      9189            0.0000000000
     27681      9200  TIP3      H2            -11.0730303985       18.5591642534       21.6105253365  SOLV      9189            0.0000000000
     27682      9201  TIP3      OH2           -14.8084603985       32.4236142534       19.1634653365  SOLV      9190            0.0000000000
     27683      9201  TIP3      H1            -14.6475903985       33.2233642534       18.6627253365  SOLV      9190            0.0000000000
     27684      9201  TIP3      H2            -15.0056803985       32.7302142534       20.0485253365  SOLV      9190            0.0000000000
     27685      9202  TIP3      OH2           -16.0740203985       19.1215342534       18.7792253365  SOLV      9191            0.0000000000
     27686      9202  TIP3      H1            -16.1575403985       20.0098442534       19.1258653365  SOLV      9191            0.0000000000
     27687      9202  TIP3      H2            -15.1839903985       18.8562042534       19.0109053365  SOLV      9191            0.0000000000
     27688      9203  TIP3      OH2            -5.8751703985       19.8705942534       31.1734953365  SOLV      9192            0.0000000000
     27689      9203  TIP3      H1             -6.7915903985       20.1327642534       31.0858653365  SOLV      9192            0.0000000000
     27690      9203  TIP3      H2             -5.5396703985       19.8674942534       30.2770253365  SOLV      9192            0.0000000000
     27691      9204  TIP3      OH2            -7.2730703985       23.6206942534       25.2692253365  SOLV      9193            0.0000000000
     27692      9204  TIP3      H1             -8.0706303985       23.2057142534       24.9407253365  SOLV      9193            0.0000000000
     27693      9204  TIP3      H2             -6.8279603985       22.9300642534       25.7602753365  SOLV      9193            0.0000000000
     27694      9205  TIP3      OH2           -17.8154903985       29.5487542534       17.8396753365  SOLV      9194            0.0000000000
     27695      9205  TIP3      H1            -17.2233403985       30.2482342534       18.1159153365  SOLV      9194            0.0000000000
     27696      9205  TIP3      H2            -17.3561903985       29.1157042534       17.1201353365  SOLV      9194            0.0000000000
     27697      9206  TIP3      OH2           -19.4995703985       22.2130542534       16.9556153365  SOLV      9195            0.0000000000
     27698      9206  TIP3      H1            -19.5443103985       23.1523642534       17.1343153365  SOLV      9195            0.0000000000
     27699      9206  TIP3      H2            -20.3872503985       21.9775442534       16.6858253365  SOLV      9195            0.0000000000
     27700      9207  TIP3      OH2            -6.1866103985       32.8769442534       26.8915753365  SOLV      9196            0.0000000000
     27701      9207  TIP3      H1             -6.3421803985       33.5553842534       26.2345053365  SOLV      9196            0.0000000000
     27702      9207  TIP3      H2             -5.2539703985       32.9488742534       27.0946353365  SOLV      9196            0.0000000000
     27703      9208  TIP3      OH2           -18.6913703985       16.9947142534       25.6287153365  SOLV      9197            0.0000000000
     27704      9208  TIP3      H1            -18.9203903985       17.0539642534       24.7012153365  SOLV      9197            0.0000000000
     27705      9208  TIP3      H2            -19.1340303985       16.2032642534       25.9351253365  SOLV      9197            0.0000000000
     27706      9209  TIP3      OH2           -19.7610403985       30.9354242534       21.7892953365  SOLV      9198            0.0000000000
     27707      9209  TIP3      H1            -20.5931803985       31.4076942534       21.8164353365  SOLV      9198            0.0000000000
     27708      9209  TIP3      H2            -19.2152103985       31.4451842534       21.1906053365  SOLV      9198            0.0000000000
     27709      9210  TIP3      OH2           -11.7833703985       31.9752942534       16.1146953365  SOLV      9199            0.0000000000
     27710      9210  TIP3      H1            -12.4272703985       31.3441542534       16.4360653365  SOLV      9199            0.0000000000
     27711      9210  TIP3      H2            -11.0215403985       31.4440942534       15.8830453365  SOLV      9199            0.0000000000
     27712      9211  TIP3      OH2            -7.1790803985       31.7922842534       16.3484953365  SOLV      9200            0.0000000000
     27713      9211  TIP3      H1             -6.8960403985       30.9978042534       16.8011853365  SOLV      9200            0.0000000000
     27714      9211  TIP3      H2             -6.4392903985       32.0253842534       15.7876053365  SOLV      9200            0.0000000000
     27715      9212  TIP3      OH2           -16.2243503985       27.7017742534       16.2059853365  SOLV      9201            0.0000000000
     27716      9212  TIP3      H1            -16.1599403985       26.9077342534       16.7366253365  SOLV      9201            0.0000000000
     27717      9212  TIP3      H2            -15.5714303985       27.5830542534       15.5161853365  SOLV      9201            0.0000000000
     27718      9213  TIP3      OH2           -10.8720103985       28.7489442534       15.9417853365  SOLV      9202            0.0000000000
     27719      9213  TIP3      H1            -11.1406003985       28.9291542534       16.8426753365  SOLV      9202            0.0000000000
     27720      9213  TIP3      H2            -11.0784503985       27.8235642534       15.8103653365  SOLV      9202            0.0000000000
     27721      9214  TIP3      OH2            -8.1755903985       27.2437442534       30.8893953365  SOLV      9203            0.0000000000
     27722      9214  TIP3      H1             -7.4301103985       27.8321142534       30.7697953365  SOLV      9203            0.0000000000
     27723      9214  TIP3      H2             -8.9329103985       27.8257142534       30.9527053365  SOLV      9203            0.0000000000
     27724      9215  TIP3      OH2           -15.0749703985       25.6743942534       18.5117853365  SOLV      9204            0.0000000000
     27725      9215  TIP3      H1            -15.5347703985       25.1902242534       19.1976353365  SOLV      9204            0.0000000000
     27726      9215  TIP3      H2            -14.8201003985       25.0059342534       17.8758353365  SOLV      9204            0.0000000000
     27727      9216  TIP3      OH2           -15.7860403985       23.5671042534       30.8677453365  SOLV      9205            0.0000000000
     27728      9216  TIP3      H1            -16.4044303985       24.2417642534       31.1482153365  SOLV      9205            0.0000000000
     27729      9216  TIP3      H2            -15.4419203985       23.8884942534       30.0343653365  SOLV      9205            0.0000000000
     27730      9217  TIP3      OH2           -14.0039303985       23.9175742534       16.7741053365  SOLV      9206            0.0000000000
     27731      9217  TIP3      H1            -14.1844303985       23.7626942534       15.8469353365  SOLV      9206            0.0000000000
     27732      9217  TIP3      H2            -13.0538803985       24.0254442534       16.8188953365  SOLV      9206            0.0000000000
     27733      9218  TIP3      OH2            -4.6141003985       26.2719942534       16.2199153365  SOLV      9207            0.0000000000
     27734      9218  TIP3      H1             -4.8876203985       25.8475442534       15.4067453365  SOLV      9207            0.0000000000
     27735      9218  TIP3      H2             -4.5746903985       27.2034442534       16.0029553365  SOLV      9207            0.0000000000
     27736      9219  TIP3      OH2           -15.4466703985       20.9221842534       31.9500553365  SOLV      9208            0.0000000000
     27737      9219  TIP3      H1            -15.2965803985       20.1933142534       31.3480253365  SOLV      9208            0.0000000000
     27738      9219  TIP3      H2            -15.4444303985       21.6993542534       31.3912753365  SOLV      9208            0.0000000000
     27739      9220  TIP3      OH2           -15.0341003985       19.2917642534       29.4427953365  SOLV      9209            0.0000000000
     27740      9220  TIP3      H1            -14.4983503985       19.7434342534       28.7907253365  SOLV      9209            0.0000000000
     27741      9220  TIP3      H2            -15.8861403985       19.1837442534       29.0202053365  SOLV      9209            0.0000000000
     27742      9221  TIP3      OH2           -13.4522603985       24.7313842534       29.6823153365  SOLV      9210            0.0000000000
     27743      9221  TIP3      H1            -12.7017803985       24.5751342534       29.1090953365  SOLV      9210            0.0000000000
     27744      9221  TIP3      H2            -13.7914303985       25.5830442534       29.4068653365  SOLV      9210            0.0000000000
     27745      9222  TIP3      OH2            -9.0366403985       22.5465642534       34.7108453365  SOLV      9211            0.0000000000
     27746      9222  TIP3      H1             -8.8445103985       21.6155042534       34.5992953365  SOLV      9211            0.0000000000
     27747      9222  TIP3      H2             -8.1790103985       22.9715142534       34.7003853365  SOLV      9211            0.0000000000
     27748      9223  TIP3      OH2            -7.7199203985       25.3350842534       32.7881153365  SOLV      9212            0.0000000000
     27749      9223  TIP3      H1             -8.0014203985       26.0445442534       32.2104953365  SOLV      9212            0.0000000000
     27750      9223  TIP3      H2             -6.7774903985       25.2623842534       32.6372353365  SOLV      9212            0.0000000000
     27751      9224  TIP3      OH2           -14.2285503985       16.7483342534       29.8741553365  SOLV      9213            0.0000000000
     27752      9224  TIP3      H1            -14.3265903985       17.6946542534       29.7687753365  SOLV      9213            0.0000000000
     27753      9224  TIP3      H2            -14.9709303985       16.3757142534       29.3985053365  SOLV      9213            0.0000000000
     27754      9225  TIP3      OH2           -12.9645003985       21.0698742534       33.4379953365  SOLV      9214            0.0000000000
     27755      9225  TIP3      H1            -13.1999603985       20.8505442534       34.3394853365  SOLV      9214            0.0000000000
     27756      9225  TIP3      H2            -13.7478103985       20.8629942534       32.9282453365  SOLV      9214            0.0000000000
     27757      9226  TIP3      OH2           -10.2488403985       20.1972242534       32.5133453365  SOLV      9215            0.0000000000
     27758      9226  TIP3      H1            -11.1963003985       20.2291942534       32.6456753365  SOLV      9215            0.0000000000
     27759      9226  TIP3      H2             -9.9361703985       19.5719342534       33.1671653365  SOLV      9215            0.0000000000
     27760      9227  TIP3      OH2            -8.6146903985       18.8313342534       34.5185353365  SOLV      9216            0.0000000000
     27761      9227  TIP3      H1             -8.7115103985       17.8790642534       34.5127253365  SOLV      9216            0.0000000000
     27762      9227  TIP3      H2             -8.9363803985       19.1000142534       35.3790853365  SOLV      9216            0.0000000000
     27763      9228  TIP3      OH2           -14.0067403985       16.0420742534       32.5454353365  SOLV      9217            0.0000000000
     27764      9228  TIP3      H1            -13.2949003985       15.4022942534       32.5313453365  SOLV      9217            0.0000000000
     27765      9228  TIP3      H2            -14.1077003985       16.3089042534       31.6317453365  SOLV      9217            0.0000000000
     27766      9229  TIP3      OH2           -13.6529903985       17.7249142534       34.5990653365  SOLV      9218            0.0000000000
     27767      9229  TIP3      H1            -13.7847703985       17.2492942534       33.7789153365  SOLV      9218            0.0000000000
     27768      9229  TIP3      H2            -14.2522503985       18.4692742534       34.5437753365  SOLV      9218            0.0000000000
     27769      9230  TIP3      OH2           -14.1067603985       34.6079442534       17.7754653365  SOLV      9219            0.0000000000
     27770      9230  TIP3      H1            -13.1736903985       34.7658142534       17.9193053365  SOLV      9219            0.0000000000
     27771      9230  TIP3      H2            -14.3708803985       35.2832442534       17.1506153365  SOLV      9219            0.0000000000
     27772      9231  TIP3      OH2           -20.5382703985       29.2443242534       17.2582753365  SOLV      9220            0.0000000000
     27773      9231  TIP3      H1            -19.6243503985       29.3232142534       17.5316653365  SOLV      9220            0.0000000000
     27774      9231  TIP3      H2            -20.5309603985       28.5572842534       16.5918353365  SOLV      9220            0.0000000000
     27775      9232  TIP3      OH2            -3.4708103985       33.5275142534       27.1207653365  SOLV      9221            0.0000000000
     27776      9232  TIP3      H1             -3.4921403985       33.7123542534       28.0597053365  SOLV      9221            0.0000000000
     27777      9232  TIP3      H2             -2.7801903985       34.0959142534       26.7799053365  SOLV      9221            0.0000000000
     27778      9233  TIP3      OH2            -3.9075203985       33.0946242534       30.0426753365  SOLV      9222            0.0000000000
     27779      9233  TIP3      H1             -4.3946503985       32.3590342534       29.6714153365  SOLV      9222            0.0000000000
     27780      9233  TIP3      H2             -3.3582503985       32.7010142534       30.7206153365  SOLV      9222            0.0000000000
     27781      9234  TIP3      OH2            -4.1558203985       27.1408042534       20.1949553365  SOLV      9223            0.0000000000
     27782      9234  TIP3      H1             -3.3056803985       27.5618942534       20.3221153365  SOLV      9223            0.0000000000
     27783      9234  TIP3      H2             -4.1503103985       26.4008142534       20.8020953365  SOLV      9223            0.0000000000
     27784      9235  TIP3      OH2            -3.7612603985       25.1945442534       22.0185253365  SOLV      9224            0.0000000000
     27785      9235  TIP3      H1             -4.4878003985       24.7148042534       22.4162853365  SOLV      9224            0.0000000000
     27786      9235  TIP3      H2             -3.1799303985       25.4000142534       22.7506853365  SOLV      9224            0.0000000000
     27787      9236  TIP3      OH2            -4.0021403985       27.9792942534       26.9662853365  SOLV      9225            0.0000000000
     27788      9236  TIP3      H1             -3.1687203985       27.6012942534       26.6856453365  SOLV      9225            0.0000000000
     27789      9236  TIP3      H2             -3.8901103985       28.9224142534       26.8471953365  SOLV      9225            0.0000000000
     27790      9237  TIP3      OH2            -5.5159103985       30.8570442534       29.2731253365  SOLV      9226            0.0000000000
     27791      9237  TIP3      H1             -6.1633803985       31.1821942534       29.8986453365  SOLV      9226            0.0000000000
     27792      9237  TIP3      H2             -6.0335103985       30.4168142534       28.5989553365  SOLV      9226            0.0000000000
     27793      9238  TIP3      OH2            -3.4929503985       25.0953942534       18.4096553365  SOLV      9227            0.0000000000
     27794      9238  TIP3      H1             -4.0148403985       25.4518042534       17.6907453365  SOLV      9227            0.0000000000
     27795      9238  TIP3      H2             -3.5260303985       25.7701742534       19.0877453365  SOLV      9227            0.0000000000
     27796      9239  TIP3      OH2            -5.1440503985       22.3349542534       16.9603653365  SOLV      9228            0.0000000000
     27797      9239  TIP3      H1             -5.0476103985       23.0016542534       16.2803353365  SOLV      9228            0.0000000000
     27798      9239  TIP3      H2             -5.2840903985       21.5195842534       16.4789153365  SOLV      9228            0.0000000000
     27799      9240  TIP3      OH2            -5.9745803985       23.7151942534       22.5813953365  SOLV      9229            0.0000000000
     27800      9240  TIP3      H1             -6.1247003985       22.7700542534       22.5611753365  SOLV      9229            0.0000000000
     27801      9240  TIP3      H2             -6.3281303985       23.9963342534       23.4253053365  SOLV      9229            0.0000000000
     27802      9241  TIP3      OH2           -20.9393403985       25.7934142534       26.5917753365  SOLV      9230            0.0000000000
     27803      9241  TIP3      H1            -20.7550503985       25.7115842534       25.6560653365  SOLV      9230            0.0000000000
     27804      9241  TIP3      H2            -20.0900503985       25.6691142534       27.0154153365  SOLV      9230            0.0000000000
     27805      9242  TIP3      OH2            -5.1182903985       25.6855242534       32.2202253365  SOLV      9231            0.0000000000
     27806      9242  TIP3      H1             -4.5355603985       24.9507542534       32.4119453365  SOLV      9231            0.0000000000
     27807      9242  TIP3      H2             -4.5543603985       26.4575542534       32.2668053365  SOLV      9231            0.0000000000
     27808      9243  TIP3      OH2            -3.6215803985       23.5881042534       32.9047653365  SOLV      9232            0.0000000000
     27809      9243  TIP3      H1             -4.4849103985       23.2093142534       32.7392353365  SOLV      9232            0.0000000000
     27810      9243  TIP3      H2             -3.0172103985       22.8495842534       32.8303453365  SOLV      9232            0.0000000000
     27811      9244  TIP3      OH2            -5.8966703985       19.7429342534       16.0779153365  SOLV      9233            0.0000000000
     27812      9244  TIP3      H1             -5.2860903985       19.3716142534       16.7147353365  SOLV      9233            0.0000000000
     27813      9244  TIP3      H2             -6.7335203985       19.3216242534       16.2739153365  SOLV      9233            0.0000000000
     27814      9245  TIP3      OH2            -6.2641003985       21.2977742534       21.0439053365  SOLV      9234            0.0000000000
     27815      9245  TIP3      H1             -5.9843903985       20.3908142534       21.1680753365  SOLV      9234            0.0000000000
     27816      9245  TIP3      H2             -5.5049303985       21.7319242534       20.6548253365  SOLV      9234            0.0000000000
     27817      9246  TIP3      OH2            -5.6522703985       21.8795142534       26.4797953365  SOLV      9235            0.0000000000
     27818      9246  TIP3      H1             -4.7194703985       22.0915042534       26.4453953365  SOLV      9235            0.0000000000
     27819      9246  TIP3      H2             -5.8875203985       21.9807242534       27.4020953365  SOLV      9235            0.0000000000
     27820      9247  TIP3      OH2            -5.6230803985       22.6160442534       29.2557353365  SOLV      9236            0.0000000000
     27821      9247  TIP3      H1             -6.4659503985       22.8840842534       29.6217153365  SOLV      9236            0.0000000000
     27822      9247  TIP3      H2             -5.1806503985       23.4382342534       29.0448453365  SOLV      9236            0.0000000000
     27823      9248  TIP3      OH2            -3.3399203985       16.5960642534       34.6092353365  SOLV      9237            0.0000000000
     27824      9248  TIP3      H1             -2.9902203985       15.9424142534       34.0037053365  SOLV      9237            0.0000000000
     27825      9248  TIP3      H2             -3.1929703985       17.4334742534       34.1694953365  SOLV      9237            0.0000000000
     27826      9249  TIP3      OH2            -5.6506203985       18.5607042534       21.0921053365  SOLV      9238            0.0000000000
     27827      9249  TIP3      H1             -5.4681203985       18.1118542534       21.9176053365  SOLV      9238            0.0000000000
     27828      9249  TIP3      H2             -6.2503303985       17.9761442534       20.6285653365  SOLV      9238            0.0000000000
     27829      9250  TIP3      OH2           -20.1206103985       19.3760742534       25.6239453365  SOLV      9239            0.0000000000
     27830      9250  TIP3      H1            -19.6754503985       18.5843242534       25.9259153365  SOLV      9239            0.0000000000
     27831      9250  TIP3      H2            -19.6543103985       20.0925942534       26.0545053365  SOLV      9239            0.0000000000
     27832      9251  TIP3      OH2           -21.8165803985       22.3753742534       26.6929653365  SOLV      9240            0.0000000000
     27833      9251  TIP3      H1            -21.3246003985       22.1544242534       25.9021653365  SOLV      9240            0.0000000000
     27834      9251  TIP3      H2            -21.4544903985       23.2157142534       26.9739153365  SOLV      9240            0.0000000000
     27835      9252  TIP3      OH2            -3.8202003985       18.7055242534       32.9583653365  SOLV      9241            0.0000000000
     27836      9252  TIP3      H1             -4.7376303985       18.9762342534       32.9227153365  SOLV      9241            0.0000000000
     27837      9252  TIP3      H2             -3.6972603985       18.1703642534       32.1743353365  SOLV      9241            0.0000000000
     27838      9253  TIP3      OH2            -3.7840003985       18.6285142534       17.6201353365  SOLV      9242            0.0000000000
     27839      9253  TIP3      H1             -3.3717403985       17.9070842534       17.1449353365  SOLV      9242            0.0000000000
     27840      9253  TIP3      H2             -3.1023503985       19.2979742534       17.6785653365  SOLV      9242            0.0000000000
     27841      9254  TIP3      OH2           -21.5029303985       18.6332842534       20.7472053365  SOLV      9243            0.0000000000
     27842      9254  TIP3      H1            -22.4280903985       18.8419442534       20.6177553365  SOLV      9243            0.0000000000
     27843      9254  TIP3      H2            -21.0489403985       19.1173642534       20.0574353365  SOLV      9243            0.0000000000
     27844      9255  TIP3      OH2            -6.7322103985       33.6174542534       22.6929453365  SOLV      9244            0.0000000000
     27845      9255  TIP3      H1             -6.0799203985       33.2696642534       22.0848553365  SOLV      9244            0.0000000000
     27846      9255  TIP3      H2             -6.2218303985       34.1057742534       23.3389153365  SOLV      9244            0.0000000000
     27847      9256  TIP3      OH2           -21.5393903985       17.3711842534       29.0914553365  SOLV      9245            0.0000000000
     27848      9256  TIP3      H1            -22.2043403985       17.1252142534       29.7345453365  SOLV      9245            0.0000000000
     27849      9256  TIP3      H2            -21.9822603985       17.9932242534       28.5142553365  SOLV      9245            0.0000000000
     27850      9257  TIP3      OH2            -4.8196103985       16.7951542534       30.7774453365  SOLV      9246            0.0000000000
     27851      9257  TIP3      H1             -5.6322603985       17.1201842534       30.3899153365  SOLV      9246            0.0000000000
     27852      9257  TIP3      H2             -4.5867603985       16.0350042534       30.2443553365  SOLV      9246            0.0000000000
     27853      9258  TIP3      OH2           -11.3897603985       18.2442142534       25.1002653365  SOLV      9247            0.0000000000
     27854      9258  TIP3      H1            -12.0640803985       17.6147742534       25.3558453365  SOLV      9247            0.0000000000
     27855      9258  TIP3      H2            -10.8258403985       17.7601042534       24.4970553365  SOLV      9247            0.0000000000
     27856      9259  TIP3      OH2            -6.2470403985       16.3516142534       25.2129753365  SOLV      9248            0.0000000000
     27857      9259  TIP3      H1             -5.6432803985       16.8991542534       24.7110753365  SOLV      9248            0.0000000000
     27858      9259  TIP3      H2             -7.1168403985       16.6706542534       24.9723853365  SOLV      9248            0.0000000000
     27859      9260  TIP3      OH2            -4.5200003985       17.4904842534       23.5460653365  SOLV      9249            0.0000000000
     27860      9260  TIP3      H1             -3.9082503985       16.9760542534       23.0194253365  SOLV      9249            0.0000000000
     27861      9260  TIP3      H2             -4.1376603985       18.3676942534       23.5695053365  SOLV      9249            0.0000000000
     27862      9261  TIP3      OH2           -19.0630103985       16.8782442534       22.9222553365  SOLV      9250            0.0000000000
     27863      9261  TIP3      H1            -19.8400303985       16.6437342534       22.4148453365  SOLV      9250            0.0000000000
     27864      9261  TIP3      H2            -18.5326503985       16.0814542534       22.9310553365  SOLV      9250            0.0000000000
     27865      9262  TIP3      OH2           -20.2266703985       16.6760542534       18.7258653365  SOLV      9251            0.0000000000
     27866      9262  TIP3      H1            -19.7876003985       17.2871042534       18.1342153365  SOLV      9251            0.0000000000
     27867      9262  TIP3      H2            -20.8604303985       17.2144642534       19.1998653365  SOLV      9251            0.0000000000
     27868      9263  TIP3      OH2           -14.4837503985       16.8049542534       22.7355653365  SOLV      9252            0.0000000000
     27869      9263  TIP3      H1            -13.6094103985       17.1933842534       22.7059953365  SOLV      9252            0.0000000000
     27870      9263  TIP3      H2            -14.6196703985       16.5897342534       23.6582853365  SOLV      9252            0.0000000000
     27871      9264  TIP3      OH2            -8.9269103985       16.8349342534       24.3847353365  SOLV      9253            0.0000000000
     27872      9264  TIP3      H1             -8.8507503985       16.9300942534       23.4353353365  SOLV      9253            0.0000000000
     27873      9264  TIP3      H2             -9.2019903985       15.9272242534       24.5136453365  SOLV      9253            0.0000000000
     27874      9265  TIP3      OH2            -7.5736503985       16.8607142534       20.0772353365  SOLV      9254            0.0000000000
     27875      9265  TIP3      H1             -8.2765403985       17.4756342534       19.8673753365  SOLV      9254            0.0000000000
     27876      9265  TIP3      H2             -8.0185103985       16.0233842534       20.2083253365  SOLV      9254            0.0000000000
     27877      9266  TIP3      OH2           -20.3257203985       32.6242742534       19.6233753365  SOLV      9255            0.0000000000
     27878      9266  TIP3      H1            -21.0107303985       32.5861642534       18.9558853365  SOLV      9255            0.0000000000
     27879      9266  TIP3      H2            -20.3220003985       33.5370342534       19.9115853365  SOLV      9255            0.0000000000
     27880      9267  TIP3      OH2           -18.3657603985       18.5922042534       17.1682753365  SOLV      9256            0.0000000000
     27881      9267  TIP3      H1            -17.8744203985       17.9624442534       16.6408253365  SOLV      9256            0.0000000000
     27882      9267  TIP3      H2            -17.7421303985       18.8881442534       17.8313953365  SOLV      9256            0.0000000000
     27883      9268  TIP3      OH2           -13.3397503985       18.8853542534       19.6253253365  SOLV      9257            0.0000000000
     27884      9268  TIP3      H1            -13.1616203985       18.2386742534       20.3081853365  SOLV      9257            0.0000000000
     27885      9268  TIP3      H2            -13.3931303985       19.7191242534       20.0924353365  SOLV      9257            0.0000000000
     27886      9269  TIP3      OH2           -11.4613703985       33.8337642534       18.0209953365  SOLV      9258            0.0000000000
     27887      9269  TIP3      H1            -10.5953503985       34.2005042534       17.8428153365  SOLV      9258            0.0000000000
     27888      9269  TIP3      H2            -11.7080903985       33.3945642534       17.2070753365  SOLV      9258            0.0000000000
     27889      9270  TIP3      OH2            -4.7524103985       33.3967942534       20.7001053365  SOLV      9259            0.0000000000
     27890      9270  TIP3      H1             -4.9467003985       32.6490042534       20.1350653365  SOLV      9259            0.0000000000
     27891      9270  TIP3      H2             -4.7914003985       34.1548042534       20.1168953365  SOLV      9259            0.0000000000
     27892      9271  TIP3      OH2           -19.1052103985       17.3924342534       32.4398753365  SOLV      9260            0.0000000000
     27893      9271  TIP3      H1            -19.4713903985       16.6266942534       32.8823453365  SOLV      9260            0.0000000000
     27894      9271  TIP3      H2            -18.1923603985       17.4214542534       32.7263853365  SOLV      9260            0.0000000000
     27895      9272  TIP3      OH2           -17.1321303985       16.7428742534       33.9755853365  SOLV      9261            0.0000000000
     27896      9272  TIP3      H1            -16.2337703985       16.4688942534       33.7909253365  SOLV      9261            0.0000000000
     27897      9272  TIP3      H2            -17.5188203985       16.0004742534       34.4398453365  SOLV      9261            0.0000000000
     27898      9273  TIP3      OH2           -18.5076003985       33.5443542534       16.6485853365  SOLV      9262            0.0000000000
     27899      9273  TIP3      H1            -18.7751403985       33.8306442534       17.5218953365  SOLV      9262            0.0000000000
     27900      9273  TIP3      H2            -17.7363403985       32.9982742534       16.8008353365  SOLV      9262            0.0000000000
     27901      9274  TIP3      OH2            -8.7109003985       16.0754042534       34.1578653365  SOLV      9263            0.0000000000
     27902      9274  TIP3      H1             -8.6341803985       15.6494742534       35.0116353365  SOLV      9263            0.0000000000
     27903      9274  TIP3      H2             -7.8172403985       16.0888742534       33.8152153365  SOLV      9263            0.0000000000
     27904      9275  TIP3      OH2             8.8712496015       26.0344742534       22.8810053365  SOLV      9264            0.0000000000
     27905      9275  TIP3      H1              8.9603596015       26.9782942534       22.7487153365  SOLV      9264            0.0000000000
     27906      9275  TIP3      H2              8.2330096015       25.7591142534       22.2229453365  SOLV      9264            0.0000000000
     27907      9276  TIP3      OH2             7.8043796015       25.2895442534       26.2998253365  SOLV      9265            0.0000000000
     27908      9276  TIP3      H1              7.7661296015       24.6431742534       27.0047853365  SOLV      9265            0.0000000000
     27909      9276  TIP3      H2              7.4820296015       24.8229842534       25.5286953365  SOLV      9265            0.0000000000
     27910      9277  TIP3      OH2             0.1728796015       24.9037542534       27.8928153365  SOLV      9266            0.0000000000
     27911      9277  TIP3      H1              0.2140896015       24.2780842534       28.6160553365  SOLV      9266            0.0000000000
     27912      9277  TIP3      H2              0.8756496015       25.5276142534       28.0748553365  SOLV      9266            0.0000000000
     27913      9278  TIP3      OH2            11.5103996015       28.2285842534       24.6013353365  SOLV      9267            0.0000000000
     27914      9278  TIP3      H1             11.0696696015       27.5081842534       25.0518953365  SOLV      9267            0.0000000000
     27915      9278  TIP3      H2             11.4973696015       28.9493042534       25.2311053365  SOLV      9267            0.0000000000
     27916      9279  TIP3      OH2             1.0961896015       29.3536442534       26.4277253365  SOLV      9268            0.0000000000
     27917      9279  TIP3      H1              0.7267096015       28.5516942534       26.0581553365  SOLV      9268            0.0000000000
     27918      9279  TIP3      H2              2.0372996015       29.1851342534       26.4740653365  SOLV      9268            0.0000000000
     27919      9280  TIP3      OH2            -2.2937603985       23.0139042534       21.8206053365  SOLV      9269            0.0000000000
     27920      9280  TIP3      H1             -2.7414203985       23.8597742534       21.8022553365  SOLV      9269            0.0000000000
     27921      9280  TIP3      H2             -2.8546403985       22.4343242534       21.3051153365  SOLV      9269            0.0000000000
     27922      9281  TIP3      OH2            -1.5831503985       25.1758642534       23.9464053365  SOLV      9270            0.0000000000
     27923      9281  TIP3      H1             -1.3698003985       24.4060242534       24.4737053365  SOLV      9270            0.0000000000
     27924      9281  TIP3      H2             -0.8453903985       25.2655342534       23.3431653365  SOLV      9270            0.0000000000
     27925      9282  TIP3      OH2             8.6219496015       33.3327542534       24.8133753365  SOLV      9271            0.0000000000
     27926      9282  TIP3      H1              9.2415896015       32.6562242534       24.5402953365  SOLV      9271            0.0000000000
     27927      9282  TIP3      H2              8.4136896015       33.1148342534       25.7218653365  SOLV      9271            0.0000000000
     27928      9283  TIP3      OH2             6.1938196015       27.7216842534       26.7059253365  SOLV      9272            0.0000000000
     27929      9283  TIP3      H1              6.4976096015       27.0358242534       26.1113353365  SOLV      9272            0.0000000000
     27930      9283  TIP3      H2              6.9152196015       27.8405542534       27.3237253365  SOLV      9272            0.0000000000
     27931      9284  TIP3      OH2            14.8567996015       19.3232142534       27.5665453365  SOLV      9273            0.0000000000
     27932      9284  TIP3      H1             14.9060196015       19.9333342534       28.3024553365  SOLV      9273            0.0000000000
     27933      9284  TIP3      H2             15.2823096015       19.7843042534       26.8436553365  SOLV      9273            0.0000000000
     27934      9285  TIP3      OH2             9.3345196015       22.1159242534       27.0334053365  SOLV      9274            0.0000000000
     27935      9285  TIP3      H1              9.4771096015       21.1696242534       27.0535653365  SOLV      9274            0.0000000000
     27936      9285  TIP3      H2              9.2284196015       22.3229042534       26.1048953365  SOLV      9274            0.0000000000
     27937      9286  TIP3      OH2             2.4893496015       20.2175642534       24.3058853365  SOLV      9275            0.0000000000
     27938      9286  TIP3      H1              2.5324596015       21.0774142534       23.8875153365  SOLV      9275            0.0000000000
     27939      9286  TIP3      H2              2.0317596015       19.6650342534       23.6722053365  SOLV      9275            0.0000000000
     27940      9287  TIP3      OH2            10.2116196015       20.3481242534       22.7067153365  SOLV      9276            0.0000000000
     27941      9287  TIP3      H1             10.8580496015       20.0194442534       23.3314753365  SOLV      9276            0.0000000000
     27942      9287  TIP3      H2             10.7215596015       20.8660242534       22.0838553365  SOLV      9276            0.0000000000
     27943      9288  TIP3      OH2            -0.8905003985       22.6141442534       25.0680253365  SOLV      9277            0.0000000000
     27944      9288  TIP3      H1             -0.2368403985       22.0643142534       25.5000353365  SOLV      9277            0.0000000000
     27945      9288  TIP3      H2             -0.8665703985       22.3400442534       24.1512253365  SOLV      9277            0.0000000000
     27946      9289  TIP3      OH2             4.2659496015       24.1642742534       24.2831753365  SOLV      9278            0.0000000000
     27947      9289  TIP3      H1              4.8820496015       23.6378142534       24.7925753365  SOLV      9278            0.0000000000
     27948      9289  TIP3      H2              3.6798296015       23.5241442534       23.8795353365  SOLV      9278            0.0000000000
     27949      9290  TIP3      OH2             1.2995396015       19.1354042534       28.3799653365  SOLV      9279            0.0000000000
     27950      9290  TIP3      H1              1.0807096015       19.6654642534       27.6135653365  SOLV      9279            0.0000000000
     27951      9290  TIP3      H2              0.6316296015       19.3619542534       29.0271053365  SOLV      9279            0.0000000000
     27952      9291  TIP3      OH2             8.6685196015       28.6355142534       21.9238753365  SOLV      9280            0.0000000000
     27953      9291  TIP3      H1              8.3730296015       28.3127442534       21.0725653365  SOLV      9280            0.0000000000
     27954      9291  TIP3      H2              8.3442996015       29.5351842534       21.9651353365  SOLV      9280            0.0000000000
     27955      9292  TIP3      OH2             3.8686796015       26.8109742534       28.6673353365  SOLV      9281            0.0000000000
     27956      9292  TIP3      H1              3.1285896015       27.4091242534       28.7708553365  SOLV      9281            0.0000000000
     27957      9292  TIP3      H2              4.5826296015       27.3649342534       28.3516953365  SOLV      9281            0.0000000000
     27958      9293  TIP3      OH2            11.9754596015       19.6390542534       24.6873053365  SOLV      9282            0.0000000000
     27959      9293  TIP3      H1             11.7602596015       18.8733942534       25.2199053365  SOLV      9282            0.0000000000
     27960      9293  TIP3      H2             12.6311996015       20.1115142534       25.2001553365  SOLV      9282            0.0000000000
     27961      9294  TIP3      OH2             0.8932696015       21.0275842534       26.3321853365  SOLV      9283            0.0000000000
     27962      9294  TIP3      H1              1.5068996015       21.6603442534       26.7054253365  SOLV      9283            0.0000000000
     27963      9294  TIP3      H2              1.4053396015       20.5550842534       25.6758753365  SOLV      9283            0.0000000000
     27964      9295  TIP3      OH2             2.2761096015       28.7752742534       29.4544853365  SOLV      9284            0.0000000000
     27965      9295  TIP3      H1              2.2708696015       29.6546242534       29.0764153365  SOLV      9284            0.0000000000
     27966      9295  TIP3      H2              1.4225196015       28.6916842534       29.8794753365  SOLV      9284            0.0000000000
     27967      9296  TIP3      OH2            12.3228696015       18.3541842534       28.3666553365  SOLV      9285            0.0000000000
     27968      9296  TIP3      H1             11.5867896015       18.9648942534       28.3287853365  SOLV      9285            0.0000000000
     27969      9296  TIP3      H2             13.0062696015       18.7690842534       27.8402953365  SOLV      9285            0.0000000000
     27970      9297  TIP3      OH2             5.3260096015       16.4409142534       25.8324553365  SOLV      9286            0.0000000000
     27971      9297  TIP3      H1              5.2084296015       15.4925142534       25.7782853365  SOLV      9286            0.0000000000
     27972      9297  TIP3      H2              4.4710196015       16.7735242534       26.1055653365  SOLV      9286            0.0000000000
     27973      9298  TIP3      OH2            10.2742896015       31.8490042534       23.5744253365  SOLV      9287            0.0000000000
     27974      9298  TIP3      H1             10.6995196015       31.1417942534       23.0893853365  SOLV      9287            0.0000000000
     27975      9298  TIP3      H2             10.5912896015       32.6502742534       23.1576453365  SOLV      9287            0.0000000000
     27976      9299  TIP3      OH2            11.4339396015       29.7498542534       22.0830853365  SOLV      9288            0.0000000000
     27977      9299  TIP3      H1             11.1764196015       29.0598642534       21.4716753365  SOLV      9288            0.0000000000
     27978      9299  TIP3      H2             11.5050196015       29.3069742534       22.9286753365  SOLV      9288            0.0000000000
     27979      9300  TIP3      OH2             7.5924996015       25.2784742534       20.3330353365  SOLV      9289            0.0000000000
     27980      9300  TIP3      H1              6.8810496015       25.8134442534       19.9810853365  SOLV      9289            0.0000000000
     27981      9300  TIP3      H2              8.2834596015       25.3336842534       19.6729253365  SOLV      9289            0.0000000000
     27982      9301  TIP3      OH2             7.6464196015       23.7359042534       17.3715353365  SOLV      9290            0.0000000000
     27983      9301  TIP3      H1              8.3474096015       23.7585942534       18.0229353365  SOLV      9290            0.0000000000
     27984      9301  TIP3      H2              7.9487096015       23.1078742534       16.7154653365  SOLV      9290            0.0000000000
     27985      9302  TIP3      OH2            10.9982696015       25.4878042534       21.2846253365  SOLV      9291            0.0000000000
     27986      9302  TIP3      H1             10.2663696015       25.7161742534       21.8576853365  SOLV      9291            0.0000000000
     27987      9302  TIP3      H2             11.4454896015       24.7740742534       21.7393753365  SOLV      9291            0.0000000000
     27988      9303  TIP3      OH2             2.6436396015       26.1184242534       23.1671253365  SOLV      9292            0.0000000000
     27989      9303  TIP3      H1              2.3131596015       25.7477642534       22.3488253365  SOLV      9292            0.0000000000
     27990      9303  TIP3      H2              3.2320496015       25.4478242534       23.5139553365  SOLV      9292            0.0000000000
     27991      9304  TIP3      OH2             4.0103896015       29.5464842534       25.8483453365  SOLV      9293            0.0000000000
     27992      9304  TIP3      H1              3.9155196015       28.9677942534       25.0918053365  SOLV      9293            0.0000000000
     27993      9304  TIP3      H2              4.7397496015       29.1750542534       26.3446253365  SOLV      9293            0.0000000000
     27994      9305  TIP3      OH2             3.0101896015       24.8869842534       26.8006253365  SOLV      9294            0.0000000000
     27995      9305  TIP3      H1              3.5754396015       25.0084042534       26.0377453365  SOLV      9294            0.0000000000
     27996      9305  TIP3      H2              3.3290796015       25.5244842534       27.4394753365  SOLV      9294            0.0000000000
     27997      9306  TIP3      OH2             9.8692196015       24.6500942534       18.9697453365  SOLV      9295            0.0000000000
     27998      9306  TIP3      H1             10.4487696015       24.8001242534       19.7166353365  SOLV      9295            0.0000000000
     27999      9306  TIP3      H2             10.2832196015       25.1208342534       18.2463853365  SOLV      9295            0.0000000000
     28000      9307  TIP3      OH2             0.8102496015       25.4843642534       30.7463853365  SOLV      9296            0.0000000000
     28001      9307  TIP3      H1              0.8805696015       26.1350442534       31.4448853365  SOLV      9296            0.0000000000
     28002      9307  TIP3      H2             -0.0805303985       25.5871142534       30.4114753365  SOLV      9296            0.0000000000
     28003      9308  TIP3      OH2             7.5957096015       31.3869442534       22.4050553365  SOLV      9297            0.0000000000
     28004      9308  TIP3      H1              8.0694696015       31.6825742534       23.1824753365  SOLV      9297            0.0000000000
     28005      9308  TIP3      H2              7.0326396015       32.1251042534       22.1720153365  SOLV      9297            0.0000000000
     28006      9309  TIP3      OH2            13.5680596015       16.4001342534       18.7827153365  SOLV      9298            0.0000000000
     28007      9309  TIP3      H1             12.6681296015       16.5390342534       19.0777753365  SOLV      9298            0.0000000000
     28008      9309  TIP3      H2             13.8198996015       17.2315942534       18.3808853365  SOLV      9298            0.0000000000
     28009      9310  TIP3      OH2             1.6339096015       25.1878542534       20.7564053365  SOLV      9299            0.0000000000
     28010      9310  TIP3      H1              1.3420396015       25.9560242534       20.2655353365  SOLV      9299            0.0000000000
     28011      9310  TIP3      H2              0.9594296015       24.5284742534       20.5935453365  SOLV      9299            0.0000000000
     28012      9311  TIP3      OH2            14.7571996015       30.7663742534       17.1591053365  SOLV      9300            0.0000000000
     28013      9311  TIP3      H1             14.8305496015       31.7053942534       17.3296353365  SOLV      9300            0.0000000000
     28014      9311  TIP3      H2             15.6627096015       30.4612342534       17.1028353365  SOLV      9300            0.0000000000
     28015      9312  TIP3      OH2            -2.2730803985       27.5507742534       29.5713853365  SOLV      9301            0.0000000000
     28016      9312  TIP3      H1             -2.7742403985       27.5227142534       28.7563553365  SOLV      9301            0.0000000000
     28017      9312  TIP3      H2             -2.2677103985       26.6450942534       29.8811153365  SOLV      9301            0.0000000000
     28018      9313  TIP3      OH2            -2.5228103985       30.3311542534       26.4554053365  SOLV      9302            0.0000000000
     28019      9313  TIP3      H1             -1.5767503985       30.1868542534       26.4363553365  SOLV      9302            0.0000000000
     28020      9313  TIP3      H2             -2.6351803985       31.1154342534       26.9925253365  SOLV      9302            0.0000000000
     28021      9314  TIP3      OH2             7.0680196015       34.3434142534       20.8199753365  SOLV      9303            0.0000000000
     28022      9314  TIP3      H1              6.9926196015       34.2221342534       19.8734953365  SOLV      9303            0.0000000000
     28023      9314  TIP3      H2              7.1008896015       35.2926842534       20.9384353365  SOLV      9303            0.0000000000
     28024      9315  TIP3      OH2             0.7213996015       33.1321142534       22.6008753365  SOLV      9304            0.0000000000
     28025      9315  TIP3      H1              0.8734396015       32.7841542534       23.4795253365  SOLV      9304            0.0000000000
     28026      9315  TIP3      H2             -0.1295603985       32.7758442534       22.3455953365  SOLV      9304            0.0000000000
     28027      9316  TIP3      OH2            10.1696196015       33.4974342534       17.8222153365  SOLV      9305            0.0000000000
     28028      9316  TIP3      H1             10.5444596015       32.7530442534       17.3514753365  SOLV      9305            0.0000000000
     28029      9316  TIP3      H2             10.1739896015       33.2274942534       18.7405453365  SOLV      9305            0.0000000000
     28030      9317  TIP3      OH2             9.8384296015       33.4231442534       20.5714353365  SOLV      9306            0.0000000000
     28031      9317  TIP3      H1              8.9034096015       33.5233342534       20.7501353365  SOLV      9306            0.0000000000
     28032      9317  TIP3      H2             10.1186196015       32.7137442534       21.1497553365  SOLV      9306            0.0000000000
     28033      9318  TIP3      OH2            -0.0240303985       28.8743142534       30.6146653365  SOLV      9307            0.0000000000
     28034      9318  TIP3      H1              0.1920996015       28.5128742534       31.4742453365  SOLV      9307            0.0000000000
     28035      9318  TIP3      H2             -0.8795603985       28.4996942534       30.4050153365  SOLV      9307            0.0000000000
     28036      9319  TIP3      OH2             2.5947696015       17.3443642534       26.6100853365  SOLV      9308            0.0000000000
     28037      9319  TIP3      H1              1.7331396015       17.2571842534       26.2023753365  SOLV      9308            0.0000000000
     28038      9319  TIP3      H2              2.5723396015       18.2003742534       27.0378453365  SOLV      9308            0.0000000000
     28039      9320  TIP3      OH2             7.2575496015       17.0664042534       29.9847853365  SOLV      9309            0.0000000000
     28040      9320  TIP3      H1              7.6778596015       16.6511142534       30.7378453365  SOLV      9309            0.0000000000
     28041      9320  TIP3      H2              6.3245096015       16.8877342534       30.1019853365  SOLV      9309            0.0000000000
     28042      9321  TIP3      OH2            11.3465296015       25.6829242534       16.5995353365  SOLV      9310            0.0000000000
     28043      9321  TIP3      H1             11.3886096015       25.4603142534       15.6695353365  SOLV      9310            0.0000000000
     28044      9321  TIP3      H2             12.1957396015       26.0816342534       16.7895253365  SOLV      9310            0.0000000000
     28045      9322  TIP3      OH2             6.9192796015       19.5587442534       17.2698653365  SOLV      9311            0.0000000000
     28046      9322  TIP3      H1              6.6657596015       19.5779042534       18.1926753365  SOLV      9311            0.0000000000
     28047      9322  TIP3      H2              6.6624896015       18.6872842534       16.9684853365  SOLV      9311            0.0000000000
     28048      9323  TIP3      OH2             2.6857796015       22.3098142534       27.7051053365  SOLV      9312            0.0000000000
     28049      9323  TIP3      H1              2.0439896015       22.2695442534       28.4141153365  SOLV      9312            0.0000000000
     28050      9323  TIP3      H2              2.7229796015       23.2362842534       27.4674053365  SOLV      9312            0.0000000000
     28051      9324  TIP3      OH2             2.6826896015       22.5308242534       22.6171053365  SOLV      9313            0.0000000000
     28052      9324  TIP3      H1              1.7899796015       22.1904342534       22.5584853365  SOLV      9313            0.0000000000
     28053      9324  TIP3      H2              3.1333496015       22.1539142534       21.8614253365  SOLV      9313            0.0000000000
     28054      9325  TIP3      OH2             8.2182396015       22.9468542534       21.4341853365  SOLV      9314            0.0000000000
     28055      9325  TIP3      H1              7.8092696015       23.7617142534       21.1426653365  SOLV      9314            0.0000000000
     28056      9325  TIP3      H2              8.9388596015       22.8068642534       20.8198953365  SOLV      9314            0.0000000000
     28057      9326  TIP3      OH2             9.2230096015       22.3928942534       24.2481553365  SOLV      9315            0.0000000000
     28058      9326  TIP3      H1              9.0274596015       22.9985742534       23.5332153365  SOLV      9315            0.0000000000
     28059      9326  TIP3      H2              9.4042696015       21.5594142534       23.8137853365  SOLV      9315            0.0000000000
     28060      9327  TIP3      OH2             0.4358296015       22.6301642534       29.5723053365  SOLV      9316            0.0000000000
     28061      9327  TIP3      H1              0.3977696015       23.0303242534       30.4410153365  SOLV      9316            0.0000000000
     28062      9327  TIP3      H2             -0.0550603985       21.8134042534       29.6625953365  SOLV      9316            0.0000000000
     28063      9328  TIP3      OH2             3.8015696015       20.0043942534       16.3709053365  SOLV      9317            0.0000000000
     28064      9328  TIP3      H1              3.3706396015       19.5594042534       17.1006453365  SOLV      9317            0.0000000000
     28065      9328  TIP3      H2              3.0834396015       20.3760242534       15.8586553365  SOLV      9317            0.0000000000
     28066      9329  TIP3      OH2            -2.9560903985       19.7463442534       23.4227753365  SOLV      9318            0.0000000000
     28067      9329  TIP3      H1             -2.3253203985       19.7175542534       24.1421653365  SOLV      9318            0.0000000000
     28068      9329  TIP3      H2             -2.5066603985       19.3212142534       22.6923653365  SOLV      9318            0.0000000000
     28069      9330  TIP3      OH2            -1.6818803985       20.4925442534       18.8468153365  SOLV      9319            0.0000000000
     28070      9330  TIP3      H1             -1.2077103985       21.0835342534       18.2619053365  SOLV      9319            0.0000000000
     28071      9330  TIP3      H2             -2.3992403985       21.0228342534       19.1938253365  SOLV      9319            0.0000000000
     28072      9331  TIP3      OH2             8.4869296015       24.0310242534       28.9193953365  SOLV      9320            0.0000000000
     28073      9331  TIP3      H1              8.8104096015       23.3999942534       28.2764453365  SOLV      9320            0.0000000000
     28074      9331  TIP3      H2              8.0468596015       23.4962442534       29.5801353365  SOLV      9320            0.0000000000
     28075      9332  TIP3      OH2             5.2642196015       19.9585742534       23.7035153365  SOLV      9321            0.0000000000
     28076      9332  TIP3      H1              4.3533296015       20.0152542534       23.9921153365  SOLV      9321            0.0000000000
     28077      9332  TIP3      H2              5.7695096015       19.8981242534       24.5142353365  SOLV      9321            0.0000000000
     28078      9333  TIP3      OH2             0.0925596015       21.5872042534       22.5302753365  SOLV      9322            0.0000000000
     28079      9333  TIP3      H1             -0.7966403985       21.6867542534       22.1902353365  SOLV      9322            0.0000000000
     28080      9333  TIP3      H2              0.3890496015       20.7455042534       22.1840653365  SOLV      9322            0.0000000000
     28081      9334  TIP3      OH2             3.7457396015       21.5874642534       20.1867353365  SOLV      9323            0.0000000000
     28082      9334  TIP3      H1              4.6772896015       21.7164642534       20.3650453365  SOLV      9323            0.0000000000
     28083      9334  TIP3      H2              3.5307696015       22.2568942534       19.5372053365  SOLV      9323            0.0000000000
     28084      9335  TIP3      OH2             9.6694096015       19.1932042534       26.9676953365  SOLV      9324            0.0000000000
     28085      9335  TIP3      H1              8.9925696015       19.3245142534       27.6316653365  SOLV      9324            0.0000000000
     28086      9335  TIP3      H2              9.1838996015       19.0381542534       26.1574653365  SOLV      9324            0.0000000000
     28087      9336  TIP3      OH2             2.4197596015       22.7816842534       17.7533453365  SOLV      9325            0.0000000000
     28088      9336  TIP3      H1              1.8772696015       22.4020642534       17.0621053365  SOLV      9325            0.0000000000
     28089      9336  TIP3      H2              3.2532496015       22.9761542534       17.3247553365  SOLV      9325            0.0000000000
     28090      9337  TIP3      OH2             6.5841896015       22.7458742534       25.5904753365  SOLV      9326            0.0000000000
     28091      9337  TIP3      H1              7.1485296015       22.1995342534       25.0434353365  SOLV      9326            0.0000000000
     28092      9337  TIP3      H2              6.4365296015       22.2240642534       26.3792353365  SOLV      9326            0.0000000000
     28093      9338  TIP3      OH2             1.5861596015       18.8824842534       22.0089553365  SOLV      9327            0.0000000000
     28094      9338  TIP3      H1              1.2691096015       17.9800142534       21.9734953365  SOLV      9327            0.0000000000
     28095      9338  TIP3      H2              2.3675696015       18.8842242534       21.4561153365  SOLV      9327            0.0000000000
     28096      9339  TIP3      OH2             5.2107796015       21.1344842534       28.0045153365  SOLV      9328            0.0000000000
     28097      9339  TIP3      H1              4.3753096015       21.5884342534       28.1147553365  SOLV      9328            0.0000000000
     28098      9339  TIP3      H2              5.7348396015       21.4103342534       28.7565053365  SOLV      9328            0.0000000000
     28099      9340  TIP3      OH2             5.7550396015       27.3472542534       19.6891553365  SOLV      9329            0.0000000000
     28100      9340  TIP3      H1              5.0101396015       26.8397842534       19.3669453365  SOLV      9329            0.0000000000
     28101      9340  TIP3      H2              5.6207596015       27.3960542534       20.6356353365  SOLV      9329            0.0000000000
     28102      9341  TIP3      OH2             9.6527196015       20.1612442534       17.8884153365  SOLV      9330            0.0000000000
     28103      9341  TIP3      H1              8.7141396015       20.2728042534       17.7372953365  SOLV      9330            0.0000000000
     28104      9341  TIP3      H2              9.9499296015       21.0179342534       18.1949853365  SOLV      9330            0.0000000000
     28105      9342  TIP3      OH2            10.3710696015       22.0285142534       19.5491553365  SOLV      9331            0.0000000000
     28106      9342  TIP3      H1             11.2629696015       21.8910142534       19.8682753365  SOLV      9331            0.0000000000
     28107      9342  TIP3      H2             10.4274296015       22.8191242534       19.0125053365  SOLV      9331            0.0000000000
     28108      9343  TIP3      OH2             0.8798696015       26.6422542534       25.4589453365  SOLV      9332            0.0000000000
     28109      9343  TIP3      H1              1.6245896015       26.6398242534       24.8575953365  SOLV      9332            0.0000000000
     28110      9343  TIP3      H2              0.9575296015       25.8186342534       25.9404553365  SOLV      9332            0.0000000000
     28111      9344  TIP3      OH2            -2.1121603985       25.1029442534       30.7737953365  SOLV      9333            0.0000000000
     28112      9344  TIP3      H1             -1.8893003985       24.6849042534       31.6055453365  SOLV      9333            0.0000000000
     28113      9344  TIP3      H2             -2.7141503985       24.4904442534       30.3510753365  SOLV      9333            0.0000000000
     28114      9345  TIP3      OH2            15.2559396015       22.2379242534       19.2438253365  SOLV      9334            0.0000000000
     28115      9345  TIP3      H1             14.7015696015       21.8417242534       18.5715753365  SOLV      9334            0.0000000000
     28116      9345  TIP3      H2             15.3562996015       23.1484442534       18.9661553365  SOLV      9334            0.0000000000
     28117      9346  TIP3      OH2            13.5511096015       31.0239642534       19.7090353365  SOLV      9335            0.0000000000
     28118      9346  TIP3      H1             13.1782196015       30.1983442534       20.0180953365  SOLV      9335            0.0000000000
     28119      9346  TIP3      H2             13.8284596015       30.8409042534       18.8113753365  SOLV      9335            0.0000000000
     28120      9347  TIP3      OH2            10.7114996015       25.8319142534       26.7302253365  SOLV      9336            0.0000000000
     28121      9347  TIP3      H1              9.7831896015       25.6001042534       26.7031553365  SOLV      9336            0.0000000000
     28122      9347  TIP3      H2             11.1626096015       25.0548942534       26.4001053365  SOLV      9336            0.0000000000
     28123      9348  TIP3      OH2             3.2548096015       30.1600742534       22.8630953365  SOLV      9337            0.0000000000
     28124      9348  TIP3      H1              3.7820296015       30.9335142534       22.6629753365  SOLV      9337            0.0000000000
     28125      9348  TIP3      H2              2.3746596015       30.3849942534       22.5614953365  SOLV      9337            0.0000000000
     28126      9349  TIP3      OH2            -0.9904203985       25.0224842534       17.4503353365  SOLV      9338            0.0000000000
     28127      9349  TIP3      H1             -0.3744303985       25.6492042534       17.8298153365  SOLV      9338            0.0000000000
     28128      9349  TIP3      H2             -1.8521603985       25.3384642534       17.7219853365  SOLV      9338            0.0000000000
     28129      9350  TIP3      OH2             4.6820396015       27.8230642534       22.4395253365  SOLV      9339            0.0000000000
     28130      9350  TIP3      H1              4.4410396015       28.7485042534       22.4810553365  SOLV      9339            0.0000000000
     28131      9350  TIP3      H2              3.9413996015       27.3641942534       22.8359153365  SOLV      9339            0.0000000000
     28132      9351  TIP3      OH2             3.3651196015       32.8448242534       21.9847453365  SOLV      9340            0.0000000000
     28133      9351  TIP3      H1              2.4151696015       32.9505642534       22.0360753365  SOLV      9340            0.0000000000
     28134      9351  TIP3      H2              3.7169296015       33.6655642534       22.3294953365  SOLV      9340            0.0000000000
     28135      9352  TIP3      OH2             8.7407796015       28.0714942534       28.4551953365  SOLV      9341            0.0000000000
     28136      9352  TIP3      H1              8.3149096015       27.8436642534       29.2815953365  SOLV      9341            0.0000000000
     28137      9352  TIP3      H2              9.3213596015       27.3326742534       28.2727253365  SOLV      9341            0.0000000000
     28138      9353  TIP3      OH2            15.4471096015       33.4797942534       17.7301153365  SOLV      9342            0.0000000000
     28139      9353  TIP3      H1             16.1908996015       34.0658442534       17.5902753365  SOLV      9342            0.0000000000
     28140      9353  TIP3      H2             14.7529196015       34.0483742534       18.0633553365  SOLV      9342            0.0000000000
     28141      9354  TIP3      OH2            -0.4782103985       19.8562142534       30.3319353365  SOLV      9343            0.0000000000
     28142      9354  TIP3      H1             -1.3709803985       20.1947542534       30.2643353365  SOLV      9343            0.0000000000
     28143      9354  TIP3      H2             -0.5769303985       19.0008242534       30.7500153365  SOLV      9343            0.0000000000
     28144      9355  TIP3      OH2            11.8095996015       27.6727442534       19.7558853365  SOLV      9344            0.0000000000
     28145      9355  TIP3      H1             11.5323596015       26.9446742534       20.3119953365  SOLV      9344            0.0000000000
     28146      9355  TIP3      H2             12.7368996015       27.7919442534       19.9611453365  SOLV      9344            0.0000000000
     28147      9356  TIP3      OH2            -0.8270103985       31.6606542534       28.7668753365  SOLV      9345            0.0000000000
     28148      9356  TIP3      H1             -0.6099803985       30.7288942534       28.7358453365  SOLV      9345            0.0000000000
     28149      9356  TIP3      H2             -0.5806603985       31.9351542534       29.6501553365  SOLV      9345            0.0000000000
     28150      9357  TIP3      OH2             5.0344496015       30.1121542534       15.9760953365  SOLV      9346            0.0000000000
     28151      9357  TIP3      H1              5.2734296015       29.3639642534       15.4289853365  SOLV      9346            0.0000000000
     28152      9357  TIP3      H2              4.7655796015       29.7243242534       16.8088753365  SOLV      9346            0.0000000000
     28153      9358  TIP3      OH2             3.9715096015       29.6825342534       18.4323553365  SOLV      9347            0.0000000000
     28154      9358  TIP3      H1              4.1183096015       29.1625142534       19.2224453365  SOLV      9347            0.0000000000
     28155      9358  TIP3      H2              3.9686796015       30.5892942534       18.7389453365  SOLV      9347            0.0000000000
     28156      9359  TIP3      OH2             0.4246196015       26.9348642534       18.9428953365  SOLV      9348            0.0000000000
     28157      9359  TIP3      H1             -0.2614503985       27.2871142534       19.5098653365  SOLV      9348            0.0000000000
     28158      9359  TIP3      H2              0.9474096015       27.6978242534       18.6963253365  SOLV      9348            0.0000000000
     28159      9360  TIP3      OH2             8.2561296015       19.5972442534       29.2217953365  SOLV      9349            0.0000000000
     28160      9360  TIP3      H1              8.9549196015       19.6711142534       29.8717653365  SOLV      9349            0.0000000000
     28161      9360  TIP3      H2              7.8752696015       18.7327442534       29.3760853365  SOLV      9349            0.0000000000
     28162      9361  TIP3      OH2             9.0406196015       19.2494142534       20.3190253365  SOLV      9350            0.0000000000
     28163      9361  TIP3      H1              9.2604496015       19.7209542534       19.5155653365  SOLV      9350            0.0000000000
     28164      9361  TIP3      H2              9.5990196015       19.6436742534       20.9890853365  SOLV      9350            0.0000000000
     28165      9362  TIP3      OH2             6.7092296015       31.3798942534       19.1817753365  SOLV      9351            0.0000000000
     28166      9362  TIP3      H1              5.8928396015       31.8768642534       19.2342053365  SOLV      9351            0.0000000000
     28167      9362  TIP3      H2              7.2388596015       31.8552442534       18.5416553365  SOLV      9351            0.0000000000
     28168      9363  TIP3      OH2             6.2406096015       20.9772942534       21.1538653365  SOLV      9352            0.0000000000
     28169      9363  TIP3      H1              7.0528696015       21.4816142534       21.2000353365  SOLV      9352            0.0000000000
     28170      9363  TIP3      H2              5.9959096015       20.8322642534       22.0678253365  SOLV      9352            0.0000000000
     28171      9364  TIP3      OH2             6.7762496015       21.9635642534       30.3385253365  SOLV      9353            0.0000000000
     28172      9364  TIP3      H1              6.8952796015       22.5371042534       31.0955653365  SOLV      9353            0.0000000000
     28173      9364  TIP3      H2              7.4317096015       21.2755042534       30.4533053365  SOLV      9353            0.0000000000
     28174      9365  TIP3      OH2             7.1242796015       18.0585942534       22.0919753365  SOLV      9354            0.0000000000
     28175      9365  TIP3      H1              6.7776296015       18.6756542534       22.7364053365  SOLV      9354            0.0000000000
     28176      9365  TIP3      H2              7.7829696015       18.5591642534       21.6105253365  SOLV      9354            0.0000000000
     28177      9366  TIP3      OH2             4.0475396015       32.4236142534       19.1634653365  SOLV      9355            0.0000000000
     28178      9366  TIP3      H1              4.2084096015       33.2233642534       18.6627253365  SOLV      9355            0.0000000000
     28179      9366  TIP3      H2              3.8503196015       32.7302142534       20.0485253365  SOLV      9355            0.0000000000
     28180      9367  TIP3      OH2             2.7819796015       19.1215342534       18.7792253365  SOLV      9356            0.0000000000
     28181      9367  TIP3      H1              2.6984596015       20.0098442534       19.1258653365  SOLV      9356            0.0000000000
     28182      9367  TIP3      H2              3.6720096015       18.8562042534       19.0109053365  SOLV      9356            0.0000000000
     28183      9368  TIP3      OH2            11.5829296015       23.6206942534       25.2692253365  SOLV      9357            0.0000000000
     28184      9368  TIP3      H1             10.7853696015       23.2057142534       24.9407253365  SOLV      9357            0.0000000000
     28185      9368  TIP3      H2             12.0280396015       22.9300642534       25.7602753365  SOLV      9357            0.0000000000
     28186      9369  TIP3      OH2             1.0405096015       29.5487542534       17.8396753365  SOLV      9358            0.0000000000
     28187      9369  TIP3      H1              1.6326596015       30.2482342534       18.1159153365  SOLV      9358            0.0000000000
     28188      9369  TIP3      H2              1.4998096015       29.1157042534       17.1201353365  SOLV      9358            0.0000000000
     28189      9370  TIP3      OH2            -0.6435703985       22.2130542534       16.9556153365  SOLV      9359            0.0000000000
     28190      9370  TIP3      H1             -0.6883103985       23.1523642534       17.1343153365  SOLV      9359            0.0000000000
     28191      9370  TIP3      H2             -1.5312503985       21.9775442534       16.6858253365  SOLV      9359            0.0000000000
     28192      9371  TIP3      OH2             0.1646296015       16.9947142534       25.6287153365  SOLV      9360            0.0000000000
     28193      9371  TIP3      H1             -0.0643903985       17.0539642534       24.7012153365  SOLV      9360            0.0000000000
     28194      9371  TIP3      H2             -0.2780303985       16.2032642534       25.9351253365  SOLV      9360            0.0000000000
     28195      9372  TIP3      OH2            -0.9050403985       30.9354242534       21.7892953365  SOLV      9361            0.0000000000
     28196      9372  TIP3      H1             -1.7371803985       31.4076942534       21.8164353365  SOLV      9361            0.0000000000
     28197      9372  TIP3      H2             -0.3592103985       31.4451842534       21.1906053365  SOLV      9361            0.0000000000
     28198      9373  TIP3      OH2             7.0726296015       31.9752942534       16.1146953365  SOLV      9362            0.0000000000
     28199      9373  TIP3      H1              6.4287296015       31.3441542534       16.4360653365  SOLV      9362            0.0000000000
     28200      9373  TIP3      H2              7.8344596015       31.4440942534       15.8830453365  SOLV      9362            0.0000000000
     28201      9374  TIP3      OH2            11.6769196015       31.7922842534       16.3484953365  SOLV      9363            0.0000000000
     28202      9374  TIP3      H1             11.9599596015       30.9978042534       16.8011853365  SOLV      9363            0.0000000000
     28203      9374  TIP3      H2             12.4167096015       32.0253842534       15.7876053365  SOLV      9363            0.0000000000
     28204      9375  TIP3      OH2             2.6316496015       27.7017742534       16.2059853365  SOLV      9364            0.0000000000
     28205      9375  TIP3      H1              2.6960596015       26.9077342534       16.7366253365  SOLV      9364            0.0000000000
     28206      9375  TIP3      H2              3.2845696015       27.5830542534       15.5161853365  SOLV      9364            0.0000000000
     28207      9376  TIP3      OH2            -0.8770703985       24.5585342534       33.4934553365  SOLV      9365            0.0000000000
     28208      9376  TIP3      H1             -0.4689503985       23.7011942534       33.3725153365  SOLV      9365            0.0000000000
     28209      9376  TIP3      H2             -1.1373103985       24.5726642534       34.4144853365  SOLV      9365            0.0000000000
     28210      9377  TIP3      OH2             3.7810296015       25.6743942534       18.5117853365  SOLV      9366            0.0000000000
     28211      9377  TIP3      H1              3.3212296015       25.1902242534       19.1976353365  SOLV      9366            0.0000000000
     28212      9377  TIP3      H2              4.0358996015       25.0059342534       17.8758353365  SOLV      9366            0.0000000000
     28213      9378  TIP3      OH2             3.0699596015       23.5671042534       30.8677453365  SOLV      9367            0.0000000000
     28214      9378  TIP3      H1              2.4515696015       24.2417642534       31.1482153365  SOLV      9367            0.0000000000
     28215      9378  TIP3      H2              3.4140796015       23.8884942534       30.0343653365  SOLV      9367            0.0000000000
     28216      9379  TIP3      OH2             4.8520696015       23.9175742534       16.7741053365  SOLV      9368            0.0000000000
     28217      9379  TIP3      H1              4.6715696015       23.7626942534       15.8469353365  SOLV      9368            0.0000000000
     28218      9379  TIP3      H2              5.8021196015       24.0254442534       16.8188953365  SOLV      9368            0.0000000000
     28219      9380  TIP3      OH2            14.2418996015       26.2719942534       16.2199153365  SOLV      9369            0.0000000000
     28220      9380  TIP3      H1             13.9683796015       25.8475442534       15.4067453365  SOLV      9369            0.0000000000
     28221      9380  TIP3      H2             14.2813096015       27.2034442534       16.0029553365  SOLV      9369            0.0000000000
     28222      9381  TIP3      OH2             3.4093296015       20.9221842534       31.9500553365  SOLV      9370            0.0000000000
     28223      9381  TIP3      H1              3.5594196015       20.1933142534       31.3480253365  SOLV      9370            0.0000000000
     28224      9381  TIP3      H2              3.4115696015       21.6993542534       31.3912753365  SOLV      9370            0.0000000000
     28225      9382  TIP3      OH2             3.8218996015       19.2917642534       29.4427953365  SOLV      9371            0.0000000000
     28226      9382  TIP3      H1              4.3576496015       19.7434342534       28.7907253365  SOLV      9371            0.0000000000
     28227      9382  TIP3      H2              2.9698596015       19.1837442534       29.0202053365  SOLV      9371            0.0000000000
     28228      9383  TIP3      OH2             5.4037396015       24.7313842534       29.6823153365  SOLV      9372            0.0000000000
     28229      9383  TIP3      H1              6.1542196015       24.5751342534       29.1090953365  SOLV      9372            0.0000000000
     28230      9383  TIP3      H2              5.0645696015       25.5830442534       29.4068653365  SOLV      9372            0.0000000000
     28231      9384  TIP3      OH2             1.8879596015       22.1205342534       33.8616153365  SOLV      9373            0.0000000000
     28232      9384  TIP3      H1              1.1208596015       21.5880142534       33.6513753365  SOLV      9373            0.0000000000
     28233      9384  TIP3      H2              2.5668596015       21.8105742534       33.2622453365  SOLV      9373            0.0000000000
     28234      9385  TIP3      OH2             4.6274496015       16.7483342534       29.8741553365  SOLV      9374            0.0000000000
     28235      9385  TIP3      H1              4.5294096015       17.6946542534       29.7687753365  SOLV      9374            0.0000000000
     28236      9385  TIP3      H2              3.8850696015       16.3757142534       29.3985053365  SOLV      9374            0.0000000000
     28237      9386  TIP3      OH2             5.8914996015       21.0698742534       33.4379953365  SOLV      9375            0.0000000000
     28238      9386  TIP3      H1              5.6560396015       20.8505442534       34.3394853365  SOLV      9375            0.0000000000
     28239      9386  TIP3      H2              5.1081896015       20.8629942534       32.9282453365  SOLV      9375            0.0000000000
     28240      9387  TIP3      OH2             0.0682396015       20.0409142534       33.5660853365  SOLV      9376            0.0000000000
     28241      9387  TIP3      H1              0.2799796015       19.3345242534       32.9558353365  SOLV      9376            0.0000000000
     28242      9387  TIP3      H2             -0.0430103985       19.6035142534       34.4102053365  SOLV      9376            0.0000000000
     28243      9388  TIP3      OH2             4.8492596015       16.0420742534       32.5454353365  SOLV      9377            0.0000000000
     28244      9388  TIP3      H1              5.5610996015       15.4022942534       32.5313453365  SOLV      9377            0.0000000000
     28245      9388  TIP3      H2              4.7482996015       16.3089042534       31.6317453365  SOLV      9377            0.0000000000
     28246      9389  TIP3      OH2             5.2030096015       17.7249142534       34.5990653365  SOLV      9378            0.0000000000
     28247      9389  TIP3      H1              5.0712296015       17.2492942534       33.7789153365  SOLV      9378            0.0000000000
     28248      9389  TIP3      H2              4.6037496015       18.4692742534       34.5437753365  SOLV      9378            0.0000000000
     28249      9390  TIP3      OH2             4.7492396015       34.6079442534       17.7754653365  SOLV      9379            0.0000000000
     28250      9390  TIP3      H1              5.6823096015       34.7658142534       17.9193053365  SOLV      9379            0.0000000000
     28251      9390  TIP3      H2              4.4851196015       35.2832442534       17.1506153365  SOLV      9379            0.0000000000
     28252      9391  TIP3      OH2            -1.6822703985       29.2443242534       17.2582753365  SOLV      9380            0.0000000000
     28253      9391  TIP3      H1             -0.7683503985       29.3232142534       17.5316653365  SOLV      9380            0.0000000000
     28254      9391  TIP3      H2             -1.6749603985       28.5572842534       16.5918353365  SOLV      9380            0.0000000000
     28255      9392  TIP3      OH2            -3.0332103985       34.6371742534       22.3356653365  SOLV      9381            0.0000000000
     28256      9392  TIP3      H1             -3.6805003985       34.1753442534       21.8027853365  SOLV      9381            0.0000000000
     28257      9392  TIP3      H2             -2.6787503985       33.9655042534       22.9182853365  SOLV      9381            0.0000000000
     28258      9393  TIP3      OH2            -2.1632903985       32.7178742534       24.1402853365  SOLV      9382            0.0000000000
     28259      9393  TIP3      H1             -2.4976103985       31.8376042534       24.3123053365  SOLV      9382            0.0000000000
     28260      9393  TIP3      H2             -1.9410503985       33.0633742534       25.0048453365  SOLV      9382            0.0000000000
     28261      9394  TIP3      OH2            14.7001796015       27.1408042534       20.1949553365  SOLV      9383            0.0000000000
     28262      9394  TIP3      H1             15.5503196015       27.5618942534       20.3221153365  SOLV      9383            0.0000000000
     28263      9394  TIP3      H2             14.7056896015       26.4008142534       20.8020953365  SOLV      9383            0.0000000000
     28264      9395  TIP3      OH2            15.0947396015       25.1945442534       22.0185253365  SOLV      9384            0.0000000000
     28265      9395  TIP3      H1             14.3681996015       24.7148042534       22.4162853365  SOLV      9384            0.0000000000
     28266      9395  TIP3      H2             15.6760696015       25.4000142534       22.7506853365  SOLV      9384            0.0000000000
     28267      9396  TIP3      OH2            15.3630496015       25.0953942534       18.4096553365  SOLV      9385            0.0000000000
     28268      9396  TIP3      H1             14.8411596015       25.4518042534       17.6907453365  SOLV      9385            0.0000000000
     28269      9396  TIP3      H2             15.3299696015       25.7701742534       19.0877453365  SOLV      9385            0.0000000000
     28270      9397  TIP3      OH2            13.7119496015       22.3349542534       16.9603653365  SOLV      9386            0.0000000000
     28271      9397  TIP3      H1             13.8083896015       23.0016542534       16.2803353365  SOLV      9386            0.0000000000
     28272      9397  TIP3      H2             13.5719096015       21.5195842534       16.4789153365  SOLV      9386            0.0000000000
     28273      9398  TIP3      OH2            12.8814196015       23.7151942534       22.5813953365  SOLV      9387            0.0000000000
     28274      9398  TIP3      H1             12.7312996015       22.7700542534       22.5611753365  SOLV      9387            0.0000000000
     28275      9398  TIP3      H2             12.5278696015       23.9963342534       23.4253053365  SOLV      9387            0.0000000000
     28276      9399  TIP3      OH2            -2.0833403985       25.7934142534       26.5917753365  SOLV      9388            0.0000000000
     28277      9399  TIP3      H1             -1.8990503985       25.7115842534       25.6560653365  SOLV      9388            0.0000000000
     28278      9399  TIP3      H2             -1.2340503985       25.6691142534       27.0154153365  SOLV      9388            0.0000000000
     28279      9400  TIP3      OH2            12.9593296015       19.7429342534       16.0779153365  SOLV      9389            0.0000000000
     28280      9400  TIP3      H1             13.5699096015       19.3716142534       16.7147353365  SOLV      9389            0.0000000000
     28281      9400  TIP3      H2             12.1224796015       19.3216242534       16.2739153365  SOLV      9389            0.0000000000
     28282      9401  TIP3      OH2            12.5918996015       21.2977742534       21.0439053365  SOLV      9390            0.0000000000
     28283      9401  TIP3      H1             12.8716096015       20.3908142534       21.1680753365  SOLV      9390            0.0000000000
     28284      9401  TIP3      H2             13.3510696015       21.7319242534       20.6548253365  SOLV      9390            0.0000000000
     28285      9402  TIP3      OH2            13.2037296015       21.8795142534       26.4797953365  SOLV      9391            0.0000000000
     28286      9402  TIP3      H1             14.1365296015       22.0915042534       26.4453953365  SOLV      9391            0.0000000000
     28287      9402  TIP3      H2             12.9684796015       21.9807242534       27.4020953365  SOLV      9391            0.0000000000
     28288      9403  TIP3      OH2            -2.4858603985       21.0639142534       32.7326553365  SOLV      9392            0.0000000000
     28289      9403  TIP3      H1             -1.5663703985       20.9417442534       32.9689653365  SOLV      9392            0.0000000000
     28290      9403  TIP3      H2             -2.9354103985       20.3138842534       33.1220053365  SOLV      9392            0.0000000000
     28291      9404  TIP3      OH2            13.2053796015       18.5607042534       21.0921053365  SOLV      9393            0.0000000000
     28292      9404  TIP3      H1             13.3878796015       18.1118542534       21.9176053365  SOLV      9393            0.0000000000
     28293      9404  TIP3      H2             12.6056696015       17.9761442534       20.6285653365  SOLV      9393            0.0000000000
     28294      9405  TIP3      OH2            -1.2646103985       19.3760742534       25.6239453365  SOLV      9394            0.0000000000
     28295      9405  TIP3      H1             -0.8194503985       18.5843242534       25.9259153365  SOLV      9394            0.0000000000
     28296      9405  TIP3      H2             -0.7983103985       20.0925942534       26.0545053365  SOLV      9394            0.0000000000
     28297      9406  TIP3      OH2            -2.9605803985       22.3753742534       26.6929653365  SOLV      9395            0.0000000000
     28298      9406  TIP3      H1             -2.4686003985       22.1544242534       25.9021653365  SOLV      9395            0.0000000000
     28299      9406  TIP3      H2             -2.5984903985       23.2157142534       26.9739153365  SOLV      9395            0.0000000000
     28300      9407  TIP3      OH2            15.0719996015       18.6285142534       17.6201353365  SOLV      9396            0.0000000000
     28301      9407  TIP3      H1             15.4842596015       17.9070842534       17.1449353365  SOLV      9396            0.0000000000
     28302      9407  TIP3      H2             15.7536496015       19.2979742534       17.6785653365  SOLV      9396            0.0000000000
     28303      9408  TIP3      OH2            -2.6469303985       18.6332842534       20.7472053365  SOLV      9397            0.0000000000
     28304      9408  TIP3      H1             -3.5720903985       18.8419442534       20.6177553365  SOLV      9397            0.0000000000
     28305      9408  TIP3      H2             -2.1929403985       19.1173642534       20.0574353365  SOLV      9397            0.0000000000
     28306      9409  TIP3      OH2            12.1237896015       33.6174542534       22.6929453365  SOLV      9398            0.0000000000
     28307      9409  TIP3      H1             12.7760796015       33.2696642534       22.0848553365  SOLV      9398            0.0000000000
     28308      9409  TIP3      H2             12.6341696015       34.1057742534       23.3389153365  SOLV      9398            0.0000000000
     28309      9410  TIP3      OH2            -2.6833903985       17.3711842534       29.0914553365  SOLV      9399            0.0000000000
     28310      9410  TIP3      H1             -3.3483403985       17.1252142534       29.7345453365  SOLV      9399            0.0000000000
     28311      9410  TIP3      H2             -3.1262603985       17.9932242534       28.5142553365  SOLV      9399            0.0000000000
     28312      9411  TIP3      OH2             2.4628296015       31.5207142534       29.4944353365  SOLV      9400            0.0000000000
     28313      9411  TIP3      H1              2.0379396015       32.3305642534       29.2118953365  SOLV      9400            0.0000000000
     28314      9411  TIP3      H2              3.3671096015       31.6061242534       29.1924153365  SOLV      9400            0.0000000000
     28315      9412  TIP3      OH2            14.0363896015       16.7951542534       30.7774453365  SOLV      9401            0.0000000000
     28316      9412  TIP3      H1             13.2237396015       17.1201842534       30.3899153365  SOLV      9401            0.0000000000
     28317      9412  TIP3      H2             14.2692396015       16.0350042534       30.2443553365  SOLV      9401            0.0000000000
     28318      9413  TIP3      OH2            -0.1355003985       34.7771042534       29.5419653365  SOLV      9402            0.0000000000
     28319      9413  TIP3      H1             -0.8558603985       35.2172042534       29.0907353365  SOLV      9402            0.0000000000
     28320      9413  TIP3      H2             -0.5011003985       34.5265742534       30.3903653365  SOLV      9402            0.0000000000
     28321      9414  TIP3      OH2             2.3317596015       34.3774942534       28.5716853365  SOLV      9403            0.0000000000
     28322      9414  TIP3      H1              1.4669796015       34.4493442534       28.9756953365  SOLV      9403            0.0000000000
     28323      9414  TIP3      H2              2.2766596015       34.9242242534       27.7879353365  SOLV      9403            0.0000000000
     28324      9415  TIP3      OH2            -0.7206903985       33.4003542534       26.4521453365  SOLV      9404            0.0000000000
     28325      9415  TIP3      H1             -0.7390903985       32.9748642534       27.3093753365  SOLV      9404            0.0000000000
     28326      9415  TIP3      H2              0.0840996015       33.0818542534       26.0433653365  SOLV      9404            0.0000000000
     28327      9416  TIP3      OH2             1.4206196015       32.1102242534       25.1071353365  SOLV      9405            0.0000000000
     28328      9416  TIP3      H1              1.2016896015       31.1939642534       25.2767353365  SOLV      9405            0.0000000000
     28329      9416  TIP3      H2              2.2448396015       32.2502642534       25.5732753365  SOLV      9405            0.0000000000
     28330      9417  TIP3      OH2             3.9578696015       32.5801542534       25.9559353365  SOLV      9406            0.0000000000
     28331      9417  TIP3      H1              4.1704396015       31.6920542534       25.6690253365  SOLV      9406            0.0000000000
     28332      9417  TIP3      H2              4.0223796015       32.5459242534       26.9103353365  SOLV      9406            0.0000000000
     28333      9418  TIP3      OH2             7.4662396015       18.2442142534       25.1002653365  SOLV      9407            0.0000000000
     28334      9418  TIP3      H1              6.7919196015       17.6147742534       25.3558453365  SOLV      9407            0.0000000000
     28335      9418  TIP3      H2              8.0301596015       17.7601042534       24.4970553365  SOLV      9407            0.0000000000
     28336      9419  TIP3      OH2            12.6089596015       16.3516142534       25.2129753365  SOLV      9408            0.0000000000
     28337      9419  TIP3      H1             13.2127196015       16.8991542534       24.7110753365  SOLV      9408            0.0000000000
     28338      9419  TIP3      H2             11.7391596015       16.6706542534       24.9723853365  SOLV      9408            0.0000000000
     28339      9420  TIP3      OH2            14.3359996015       17.4904842534       23.5460653365  SOLV      9409            0.0000000000
     28340      9420  TIP3      H1             14.9477496015       16.9760542534       23.0194253365  SOLV      9409            0.0000000000
     28341      9420  TIP3      H2             14.7183396015       18.3676942534       23.5695053365  SOLV      9409            0.0000000000
     28342      9421  TIP3      OH2            -0.2070103985       16.8782442534       22.9222553365  SOLV      9410            0.0000000000
     28343      9421  TIP3      H1             -0.9840303985       16.6437342534       22.4148453365  SOLV      9410            0.0000000000
     28344      9421  TIP3      H2              0.3233496015       16.0814542534       22.9310553365  SOLV      9410            0.0000000000
     28345      9422  TIP3      OH2            -1.3706703985       16.6760542534       18.7258653365  SOLV      9411            0.0000000000
     28346      9422  TIP3      H1             -0.9316003985       17.2871042534       18.1342153365  SOLV      9411            0.0000000000
     28347      9422  TIP3      H2             -2.0044303985       17.2144642534       19.1998653365  SOLV      9411            0.0000000000
     28348      9423  TIP3      OH2             4.3722496015       16.8049542534       22.7355653365  SOLV      9412            0.0000000000
     28349      9423  TIP3      H1              5.2465896015       17.1933842534       22.7059953365  SOLV      9412            0.0000000000
     28350      9423  TIP3      H2              4.2363296015       16.5897342534       23.6582853365  SOLV      9412            0.0000000000
     28351      9424  TIP3      OH2             9.9290896015       16.8349342534       24.3847353365  SOLV      9413            0.0000000000
     28352      9424  TIP3      H1             10.0052496015       16.9300942534       23.4353353365  SOLV      9413            0.0000000000
     28353      9424  TIP3      H2              9.6540096015       15.9272242534       24.5136453365  SOLV      9413            0.0000000000
     28354      9425  TIP3      OH2            11.2823496015       16.8607142534       20.0772353365  SOLV      9414            0.0000000000
     28355      9425  TIP3      H1             10.5794596015       17.4756342534       19.8673753365  SOLV      9414            0.0000000000
     28356      9425  TIP3      H2             10.8374896015       16.0233842534       20.2083253365  SOLV      9414            0.0000000000
     28357      9426  TIP3      OH2            -1.4697203985       32.6242742534       19.6233753365  SOLV      9415            0.0000000000
     28358      9426  TIP3      H1             -2.1547303985       32.5861642534       18.9558853365  SOLV      9415            0.0000000000
     28359      9426  TIP3      H2             -1.4660003985       33.5370342534       19.9115853365  SOLV      9415            0.0000000000
     28360      9427  TIP3      OH2             0.4902396015       18.5922042534       17.1682753365  SOLV      9416            0.0000000000
     28361      9427  TIP3      H1              0.9815796015       17.9624442534       16.6408253365  SOLV      9416            0.0000000000
     28362      9427  TIP3      H2              1.1138696015       18.8881442534       17.8313953365  SOLV      9416            0.0000000000
     28363      9428  TIP3      OH2             5.5162496015       18.8853542534       19.6253253365  SOLV      9417            0.0000000000
     28364      9428  TIP3      H1              5.6943796015       18.2386742534       20.3081853365  SOLV      9417            0.0000000000
     28365      9428  TIP3      H2              5.4628696015       19.7191242534       20.0924353365  SOLV      9417            0.0000000000
     28366      9429  TIP3      OH2             7.3946296015       33.8337642534       18.0209953365  SOLV      9418            0.0000000000
     28367      9429  TIP3      H1              8.2606496015       34.2005042534       17.8428153365  SOLV      9418            0.0000000000
     28368      9429  TIP3      H2              7.1479096015       33.3945642534       17.2070753365  SOLV      9418            0.0000000000
     28369      9430  TIP3      OH2            14.1035896015       33.3967942534       20.7001053365  SOLV      9419            0.0000000000
     28370      9430  TIP3      H1             13.9092996015       32.6490042534       20.1350653365  SOLV      9419            0.0000000000
     28371      9430  TIP3      H2             14.0645996015       34.1548042534       20.1168953365  SOLV      9419            0.0000000000
     28372      9431  TIP3      OH2            -0.2492103985       17.3924342534       32.4398753365  SOLV      9420            0.0000000000
     28373      9431  TIP3      H1             -0.6153903985       16.6266942534       32.8823453365  SOLV      9420            0.0000000000
     28374      9431  TIP3      H2              0.6636396015       17.4214542534       32.7263853365  SOLV      9420            0.0000000000
     28375      9432  TIP3      OH2             1.7238696015       16.7428742534       33.9755853365  SOLV      9421            0.0000000000
     28376      9432  TIP3      H1              2.6222296015       16.4688942534       33.7909253365  SOLV      9421            0.0000000000
     28377      9432  TIP3      H2              1.3371796015       16.0004742534       34.4398453365  SOLV      9421            0.0000000000
     28378      9433  TIP3      OH2             0.3483996015       33.5443542534       16.6485853365  SOLV      9422            0.0000000000
     28379      9433  TIP3      H1              0.0808596015       33.8306442534       17.5218953365  SOLV      9422            0.0000000000
     28380      9433  TIP3      H2              1.1196596015       32.9982742534       16.8008353365  SOLV      9422            0.0000000000
     28381      9434  TIP3      OH2            16.5622396015       23.0139042534       21.8206053365  SOLV      9423            0.0000000000
     28382      9434  TIP3      H1             16.1145796015       23.8597742534       21.8022553365  SOLV      9423            0.0000000000
     28383      9434  TIP3      H2             16.0013596015       22.4343242534       21.3051153365  SOLV      9423            0.0000000000
     28384      9435  TIP3      OH2            17.2728496015       25.1758642534       23.9464053365  SOLV      9424            0.0000000000
     28385      9435  TIP3      H1             17.4861996015       24.4060242534       24.4737053365  SOLV      9424            0.0000000000
     28386      9435  TIP3      H2             18.0106096015       25.2655342534       23.3431653365  SOLV      9424            0.0000000000
     28387      9436  TIP3      OH2            21.3453496015       20.2175642534       24.3058853365  SOLV      9425            0.0000000000
     28388      9436  TIP3      H1             21.3884596015       21.0774142534       23.8875153365  SOLV      9425            0.0000000000
     28389      9436  TIP3      H2             20.8877596015       19.6650342534       23.6722053365  SOLV      9425            0.0000000000
     28390      9437  TIP3      OH2            17.9654996015       22.6141442534       25.0680253365  SOLV      9426            0.0000000000
     28391      9437  TIP3      H1             18.6191596015       22.0643142534       25.5000353365  SOLV      9426            0.0000000000
     28392      9437  TIP3      H2             17.9894296015       22.3400442534       24.1512253365  SOLV      9426            0.0000000000
     28393      9438  TIP3      OH2            17.2531996015       28.4460642534       20.2364153365  SOLV      9427            0.0000000000
     28394      9438  TIP3      H1             16.9812896015       28.6751642534       19.3477053365  SOLV      9427            0.0000000000
     28395      9438  TIP3      H2             17.2987696015       29.2839442534       20.6969453365  SOLV      9427            0.0000000000
     28396      9439  TIP3      OH2            26.5024196015       23.7359042534       17.3715353365  SOLV      9428            0.0000000000
     28397      9439  TIP3      H1             27.2034096015       23.7585942534       18.0229353365  SOLV      9428            0.0000000000
     28398      9439  TIP3      H2             26.8047096015       23.1078742534       16.7154653365  SOLV      9428            0.0000000000
     28399      9440  TIP3      OH2            32.4240596015       16.4001342534       18.7827153365  SOLV      9429            0.0000000000
     28400      9440  TIP3      H1             31.5241296015       16.5390342534       19.0777753365  SOLV      9429            0.0000000000
     28401      9440  TIP3      H2             32.6758996015       17.2315942534       18.3808853365  SOLV      9429            0.0000000000
     28402      9441  TIP3      OH2            20.4899096015       25.1878542534       20.7564053365  SOLV      9430            0.0000000000
     28403      9441  TIP3      H1             20.1980396015       25.9560242534       20.2655353365  SOLV      9430            0.0000000000
     28404      9441  TIP3      H2             19.8154296015       24.5284742534       20.5935453365  SOLV      9430            0.0000000000
     28405      9442  TIP3      OH2            30.2025296015       25.6829242534       16.5995353365  SOLV      9431            0.0000000000
     28406      9442  TIP3      H1             30.2446096015       25.4603142534       15.6695353365  SOLV      9431            0.0000000000
     28407      9442  TIP3      H2             31.0517396015       26.0816342534       16.7895253365  SOLV      9431            0.0000000000
     28408      9443  TIP3      OH2            25.7752796015       19.5587442534       17.2698653365  SOLV      9432            0.0000000000
     28409      9443  TIP3      H1             25.5217596015       19.5779042534       18.1926753365  SOLV      9432            0.0000000000
     28410      9443  TIP3      H2             25.5184896015       18.6872842534       16.9684853365  SOLV      9432            0.0000000000
     28411      9444  TIP3      OH2            21.5386896015       22.5308242534       22.6171053365  SOLV      9433            0.0000000000
     28412      9444  TIP3      H1             20.6459796015       22.1904342534       22.5584853365  SOLV      9433            0.0000000000
     28413      9444  TIP3      H2             21.9893496015       22.1539142534       21.8614253365  SOLV      9433            0.0000000000
     28414      9445  TIP3      OH2            22.6575696015       20.0043942534       16.3709053365  SOLV      9434            0.0000000000
     28415      9445  TIP3      H1             22.2266396015       19.5594042534       17.1006453365  SOLV      9434            0.0000000000
     28416      9445  TIP3      H2             21.9394396015       20.3760242534       15.8586553365  SOLV      9434            0.0000000000
     28417      9446  TIP3      OH2            15.8999096015       19.7463442534       23.4227753365  SOLV      9435            0.0000000000
     28418      9446  TIP3      H1             16.5306796015       19.7175542534       24.1421653365  SOLV      9435            0.0000000000
     28419      9446  TIP3      H2             16.3493396015       19.3212142534       22.6923653365  SOLV      9435            0.0000000000
     28420      9447  TIP3      OH2            17.1741196015       20.4925442534       18.8468153365  SOLV      9436            0.0000000000
     28421      9447  TIP3      H1             17.6482896015       21.0835342534       18.2619053365  SOLV      9436            0.0000000000
     28422      9447  TIP3      H2             16.4567596015       21.0228342534       19.1938253365  SOLV      9436            0.0000000000
     28423      9448  TIP3      OH2            18.9485596015       21.5872042534       22.5302753365  SOLV      9437            0.0000000000
     28424      9448  TIP3      H1             18.0593596015       21.6867542534       22.1902353365  SOLV      9437            0.0000000000
     28425      9448  TIP3      H2             19.2450496015       20.7455042534       22.1840653365  SOLV      9437            0.0000000000
     28426      9449  TIP3      OH2            22.6017396015       21.5874642534       20.1867353365  SOLV      9438            0.0000000000
     28427      9449  TIP3      H1             23.5332896015       21.7164642534       20.3650453365  SOLV      9438            0.0000000000
     28428      9449  TIP3      H2             22.3867696015       22.2568942534       19.5372053365  SOLV      9438            0.0000000000
     28429      9450  TIP3      OH2            21.2757596015       22.7816842534       17.7533453365  SOLV      9439            0.0000000000
     28430      9450  TIP3      H1             20.7332696015       22.4020642534       17.0621053365  SOLV      9439            0.0000000000
     28431      9450  TIP3      H2             22.1092496015       22.9761542534       17.3247553365  SOLV      9439            0.0000000000
     28432      9451  TIP3      OH2            20.4421596015       18.8824842534       22.0089553365  SOLV      9440            0.0000000000
     28433      9451  TIP3      H1             20.1251096015       17.9800142534       21.9734953365  SOLV      9440            0.0000000000
     28434      9451  TIP3      H2             21.2235696015       18.8842242534       21.4561153365  SOLV      9440            0.0000000000
     28435      9452  TIP3      OH2            24.6110396015       27.3472542534       19.6891553365  SOLV      9441            0.0000000000
     28436      9452  TIP3      H1             23.8661396015       26.8397842534       19.3669453365  SOLV      9441            0.0000000000
     28437      9452  TIP3      H2             24.4767596015       27.3960542534       20.6356353365  SOLV      9441            0.0000000000
     28438      9453  TIP3      OH2            28.5087196015       20.1612442534       17.8884153365  SOLV      9442            0.0000000000
     28439      9453  TIP3      H1             27.5701396015       20.2728042534       17.7372953365  SOLV      9442            0.0000000000
     28440      9453  TIP3      H2             28.8059296015       21.0179342534       18.1949853365  SOLV      9442            0.0000000000
     28441      9454  TIP3      OH2            17.8655796015       25.0224842534       17.4503353365  SOLV      9443            0.0000000000
     28442      9454  TIP3      H1             18.4815696015       25.6492042534       17.8298153365  SOLV      9443            0.0000000000
     28443      9454  TIP3      H2             17.0038396015       25.3384642534       17.7219853365  SOLV      9443            0.0000000000
     28444      9455  TIP3      OH2            23.8904496015       30.1121542534       15.9760953365  SOLV      9444            0.0000000000
     28445      9455  TIP3      H1             24.1294296015       29.3639642534       15.4289853365  SOLV      9444            0.0000000000
     28446      9455  TIP3      H2             23.6215796015       29.7243242534       16.8088753365  SOLV      9444            0.0000000000
     28447      9456  TIP3      OH2            22.8275096015       29.6825342534       18.4323553365  SOLV      9445            0.0000000000
     28448      9456  TIP3      H1             22.9743096015       29.1625142534       19.2224453365  SOLV      9445            0.0000000000
     28449      9456  TIP3      H2             22.8246796015       30.5892942534       18.7389453365  SOLV      9445            0.0000000000
     28450      9457  TIP3      OH2            19.2806196015       26.9348642534       18.9428953365  SOLV      9446            0.0000000000
     28451      9457  TIP3      H1             18.5945496015       27.2871142534       19.5098653365  SOLV      9446            0.0000000000
     28452      9457  TIP3      H2             19.8034096015       27.6978242534       18.6963253365  SOLV      9446            0.0000000000
     28453      9458  TIP3      OH2            27.8966196015       19.2494142534       20.3190253365  SOLV      9447            0.0000000000
     28454      9458  TIP3      H1             28.1164496015       19.7209542534       19.5155653365  SOLV      9447            0.0000000000
     28455      9458  TIP3      H2             28.4550196015       19.6436742534       20.9890853365  SOLV      9447            0.0000000000
     28456      9459  TIP3      OH2            25.0966096015       20.9772942534       21.1538653365  SOLV      9448            0.0000000000
     28457      9459  TIP3      H1             25.9088696015       21.4816142534       21.2000353365  SOLV      9448            0.0000000000
     28458      9459  TIP3      H2             24.8519096015       20.8322642534       22.0678253365  SOLV      9448            0.0000000000
     28459      9460  TIP3      OH2            25.9802796015       18.0585942534       22.0919753365  SOLV      9449            0.0000000000
     28460      9460  TIP3      H1             25.6336296015       18.6756542534       22.7364053365  SOLV      9449            0.0000000000
     28461      9460  TIP3      H2             26.6389696015       18.5591642534       21.6105253365  SOLV      9449            0.0000000000
     28462      9461  TIP3      OH2            21.6379796015       19.1215342534       18.7792253365  SOLV      9450            0.0000000000
     28463      9461  TIP3      H1             21.5544596015       20.0098442534       19.1258653365  SOLV      9450            0.0000000000
     28464      9461  TIP3      H2             22.5280096015       18.8562042534       19.0109053365  SOLV      9450            0.0000000000
     28465      9462  TIP3      OH2            19.8965096015       29.5487542534       17.8396753365  SOLV      9451            0.0000000000
     28466      9462  TIP3      H1             20.4886596015       30.2482342534       18.1159153365  SOLV      9451            0.0000000000
     28467      9462  TIP3      H2             20.3558096015       29.1157042534       17.1201353365  SOLV      9451            0.0000000000
     28468      9463  TIP3      OH2            18.2124296015       22.2130542534       16.9556153365  SOLV      9452            0.0000000000
     28469      9463  TIP3      H1             18.1676896015       23.1523642534       17.1343153365  SOLV      9452            0.0000000000
     28470      9463  TIP3      H2             17.3247496015       21.9775442534       16.6858253365  SOLV      9452            0.0000000000
     28471      9464  TIP3      OH2            19.0206296015       16.9947142534       25.6287153365  SOLV      9453            0.0000000000
     28472      9464  TIP3      H1             18.7916096015       17.0539642534       24.7012153365  SOLV      9453            0.0000000000
     28473      9464  TIP3      H2             18.5779696015       16.2032642534       25.9351253365  SOLV      9453            0.0000000000
     28474      9465  TIP3      OH2            17.9509596015       30.9354242534       21.7892953365  SOLV      9454            0.0000000000
     28475      9465  TIP3      H1             17.1188196015       31.4076942534       21.8164353365  SOLV      9454            0.0000000000
     28476      9465  TIP3      H2             18.4967896015       31.4451842534       21.1906053365  SOLV      9454            0.0000000000
     28477      9466  TIP3      OH2            25.9286296015       31.9752942534       16.1146953365  SOLV      9455            0.0000000000
     28478      9466  TIP3      H1             25.2847296015       31.3441542534       16.4360653365  SOLV      9455            0.0000000000
     28479      9466  TIP3      H2             26.6904596015       31.4440942534       15.8830453365  SOLV      9455            0.0000000000
     28480      9467  TIP3      OH2            21.4876496015       27.7017742534       16.2059853365  SOLV      9456            0.0000000000
     28481      9467  TIP3      H1             21.5520596015       26.9077342534       16.7366253365  SOLV      9456            0.0000000000
     28482      9467  TIP3      H2             22.1405696015       27.5830542534       15.5161853365  SOLV      9456            0.0000000000
     28483      9468  TIP3      OH2            26.8399896015       28.7489442534       15.9417853365  SOLV      9457            0.0000000000
     28484      9468  TIP3      H1             26.5713996015       28.9291542534       16.8426753365  SOLV      9457            0.0000000000
     28485      9468  TIP3      H2             26.6335496015       27.8235642534       15.8103653365  SOLV      9457            0.0000000000
     28486      9469  TIP3      OH2            22.6370296015       25.6743942534       18.5117853365  SOLV      9458            0.0000000000
     28487      9469  TIP3      H1             22.1772296015       25.1902242534       19.1976353365  SOLV      9458            0.0000000000
     28488      9469  TIP3      H2             22.8918996015       25.0059342534       17.8758353365  SOLV      9458            0.0000000000
     28489      9470  TIP3      OH2            23.7080696015       23.9175742534       16.7741053365  SOLV      9459            0.0000000000
     28490      9470  TIP3      H1             23.5275696015       23.7626942534       15.8469353365  SOLV      9459            0.0000000000
     28491      9470  TIP3      H2             24.6581196015       24.0254442534       16.8188953365  SOLV      9459            0.0000000000
     28492      9471  TIP3      OH2            17.1737296015       29.2443242534       17.2582753365  SOLV      9460            0.0000000000
     28493      9471  TIP3      H1             18.0876496015       29.3232142534       17.5316653365  SOLV      9460            0.0000000000
     28494      9471  TIP3      H2             17.1810396015       28.5572842534       16.5918353365  SOLV      9460            0.0000000000
     28495      9472  TIP3      OH2            32.5679496015       22.3349542534       16.9603653365  SOLV      9461            0.0000000000
     28496      9472  TIP3      H1             32.6643896015       23.0016542534       16.2803353365  SOLV      9461            0.0000000000
     28497      9472  TIP3      H2             32.4279096015       21.5195842534       16.4789153365  SOLV      9461            0.0000000000
     28498      9473  TIP3      OH2            31.8153296015       19.7429342534       16.0779153365  SOLV      9462            0.0000000000
     28499      9473  TIP3      H1             32.4259096015       19.3716142534       16.7147353365  SOLV      9462            0.0000000000
     28500      9473  TIP3      H2             30.9784796015       19.3216242534       16.2739153365  SOLV      9462            0.0000000000
     28501      9474  TIP3      OH2            17.5913896015       19.3760742534       25.6239453365  SOLV      9463            0.0000000000
     28502      9474  TIP3      H1             18.0365496015       18.5843242534       25.9259153365  SOLV      9463            0.0000000000
     28503      9474  TIP3      H2             18.0576896015       20.0925942534       26.0545053365  SOLV      9463            0.0000000000
     28504      9475  TIP3      OH2            15.8954196015       22.3753742534       26.6929653365  SOLV      9464            0.0000000000
     28505      9475  TIP3      H1             16.3873996015       22.1544242534       25.9021653365  SOLV      9464            0.0000000000
     28506      9475  TIP3      H2             16.2575096015       23.2157142534       26.9739153365  SOLV      9464            0.0000000000
     28507      9476  TIP3      OH2            33.9279996015       18.6285142534       17.6201353365  SOLV      9465            0.0000000000
     28508      9476  TIP3      H1             34.3402596015       17.9070842534       17.1449353365  SOLV      9465            0.0000000000
     28509      9476  TIP3      H2             34.6096496015       19.2979742534       17.6785653365  SOLV      9465            0.0000000000
     28510      9477  TIP3      OH2            16.2090696015       18.6332842534       20.7472053365  SOLV      9466            0.0000000000
     28511      9477  TIP3      H1             15.2839096015       18.8419442534       20.6177553365  SOLV      9466            0.0000000000
     28512      9477  TIP3      H2             16.6630596015       19.1173642534       20.0574353365  SOLV      9466            0.0000000000
     28513      9478  TIP3      OH2            18.6489896015       16.8782442534       22.9222553365  SOLV      9467            0.0000000000
     28514      9478  TIP3      H1             17.8719696015       16.6437342534       22.4148453365  SOLV      9467            0.0000000000
     28515      9478  TIP3      H2             19.1793496015       16.0814542534       22.9310553365  SOLV      9467            0.0000000000
     28516      9479  TIP3      OH2            17.4853296015       16.6760542534       18.7258653365  SOLV      9468            0.0000000000
     28517      9479  TIP3      H1             17.9243996015       17.2871042534       18.1342153365  SOLV      9468            0.0000000000
     28518      9479  TIP3      H2             16.8515696015       17.2144642534       19.1998653365  SOLV      9468            0.0000000000
     28519      9480  TIP3      OH2            23.2282496015       16.8049542534       22.7355653365  SOLV      9469            0.0000000000
     28520      9480  TIP3      H1             24.1025896015       17.1933842534       22.7059953365  SOLV      9469            0.0000000000
     28521      9480  TIP3      H2             23.0923296015       16.5897342534       23.6582853365  SOLV      9469            0.0000000000
     28522      9481  TIP3      OH2            30.1383496015       16.8607142534       20.0772353365  SOLV      9470            0.0000000000
     28523      9481  TIP3      H1             29.4354596015       17.4756342534       19.8673753365  SOLV      9470            0.0000000000
     28524      9481  TIP3      H2             29.6934896015       16.0233842534       20.2083253365  SOLV      9470            0.0000000000
     28525      9482  TIP3      OH2            17.3862796015       32.6242742534       19.6233753365  SOLV      9471            0.0000000000
     28526      9482  TIP3      H1             16.7012696015       32.5861642534       18.9558853365  SOLV      9471            0.0000000000
     28527      9482  TIP3      H2             17.3899996015       33.5370342534       19.9115853365  SOLV      9471            0.0000000000
     28528      9483  TIP3      OH2            19.3462396015       18.5922042534       17.1682753365  SOLV      9472            0.0000000000
     28529      9483  TIP3      H1             19.8375796015       17.9624442534       16.6408253365  SOLV      9472            0.0000000000
     28530      9483  TIP3      H2             19.9698696015       18.8881442534       17.8313953365  SOLV      9472            0.0000000000
     28531      9484  TIP3      OH2            24.3722496015       18.8853542534       19.6253253365  SOLV      9473            0.0000000000
     28532      9484  TIP3      H1             24.5503796015       18.2386742534       20.3081853365  SOLV      9473            0.0000000000
     28533      9484  TIP3      H2             24.3188696015       19.7191242534       20.0924353365  SOLV      9473            0.0000000000
     28534      9485  TIP3      OH2            19.2043996015       33.5443542534       16.6485853365  SOLV      9474            0.0000000000
     28535      9485  TIP3      H1             18.9368596015       33.8306442534       17.5218953365  SOLV      9474            0.0000000000
     28536      9485  TIP3      H2             19.9756596015       32.9982742534       16.8008353365  SOLV      9474            0.0000000000
     28537      9486  TIP3      OH2            -5.2879403985       35.2561342534       18.7827153365  SOLV      9475            0.0000000000
     28538      9486  TIP3      H1             -6.1878703985       35.3950342534       19.0777753365  SOLV      9475            0.0000000000
     28539      9486  TIP3      H2             -5.0361003985       36.0875942534       18.3808853365  SOLV      9475            0.0000000000
     28540      9487  TIP3      OH2            -6.2470403985       35.2076142534       25.2129753365  SOLV      9476            0.0000000000
     28541      9487  TIP3      H1             -5.6432803985       35.7551542534       24.7110753365  SOLV      9476            0.0000000000
     28542      9487  TIP3      H2             -7.1168403985       35.5266542534       24.9723853365  SOLV      9476            0.0000000000
     28543      9488  TIP3      OH2            -4.5200003985       36.3464842534       23.5460653365  SOLV      9477            0.0000000000
     28544      9488  TIP3      H1             -3.9082503985       35.8320542534       23.0194253365  SOLV      9477            0.0000000000
     28545      9488  TIP3      H2             -4.1376603985       37.2236942534       23.5695053365  SOLV      9477            0.0000000000
     28546      9489  TIP3      OH2           -20.2266703985       35.5320542534       18.7258653365  SOLV      9478            0.0000000000
     28547      9489  TIP3      H1            -19.7876003985       36.1431042534       18.1342153365  SOLV      9478            0.0000000000
     28548      9489  TIP3      H2            -20.8604303985       36.0704642534       19.1998653365  SOLV      9478            0.0000000000
     28549      9490  TIP3      OH2            -8.9269103985       35.6909342534       24.3847353365  SOLV      9479            0.0000000000
     28550      9490  TIP3      H1             -8.8507503985       35.7860942534       23.4353353365  SOLV      9479            0.0000000000
     28551      9490  TIP3      H2             -9.2019903985       34.7832242534       24.5136453365  SOLV      9479            0.0000000000
     28552      9491  TIP3      OH2            -7.5736503985       35.7167142534       20.0772353365  SOLV      9480            0.0000000000
     28553      9491  TIP3      H1             -8.2765403985       36.3316342534       19.8673753365  SOLV      9480            0.0000000000
     28554      9491  TIP3      H2             -8.0185103985       34.8793842534       20.2083253365  SOLV      9480            0.0000000000
     28555      9492  TIP3      OH2             5.3260096015       35.2969142534       25.8324553365  SOLV      9481            0.0000000000
     28556      9492  TIP3      H1              5.2084296015       34.3485142534       25.7782853365  SOLV      9481            0.0000000000
     28557      9492  TIP3      H2              4.4710196015       35.6295242534       26.1055653365  SOLV      9481            0.0000000000
     28558      9493  TIP3      OH2            13.5680596015       35.2561342534       18.7827153365  SOLV      9482            0.0000000000
     28559      9493  TIP3      H1             12.6681296015       35.3950342534       19.0777753365  SOLV      9482            0.0000000000
     28560      9493  TIP3      H2             13.8198996015       36.0875942534       18.3808853365  SOLV      9482            0.0000000000
     28561      9494  TIP3      OH2             2.5947696015       36.2003642534       26.6100853365  SOLV      9483            0.0000000000
     28562      9494  TIP3      H1              1.7331396015       36.1131842534       26.2023753365  SOLV      9483            0.0000000000
     28563      9494  TIP3      H2              2.5723396015       37.0563742534       27.0378453365  SOLV      9483            0.0000000000
     28564      9495  TIP3      OH2             0.1646296015       35.8507142534       25.6287153365  SOLV      9484            0.0000000000
     28565      9495  TIP3      H1             -0.0643903985       35.9099642534       24.7012153365  SOLV      9484            0.0000000000
     28566      9495  TIP3      H2             -0.2780303985       35.0592642534       25.9351253365  SOLV      9484            0.0000000000
     28567      9496  TIP3      OH2             7.4662396015       37.1002142534       25.1002653365  SOLV      9485            0.0000000000
     28568      9496  TIP3      H1              6.7919196015       36.4707742534       25.3558453365  SOLV      9485            0.0000000000
     28569      9496  TIP3      H2              8.0301596015       36.6161042534       24.4970553365  SOLV      9485            0.0000000000
     28570      9497  TIP3      OH2            -0.2070103985       35.7342442534       22.9222553365  SOLV      9486            0.0000000000
     28571      9497  TIP3      H1             -0.9840303985       35.4997342534       22.4148453365  SOLV      9486            0.0000000000
     28572      9497  TIP3      H2              0.3233496015       34.9374542534       22.9310553365  SOLV      9486            0.0000000000
     28573      9498  TIP3      OH2            -1.3706703985       35.5320542534       18.7258653365  SOLV      9487            0.0000000000
     28574      9498  TIP3      H1             -0.9316003985       36.1431042534       18.1342153365  SOLV      9487            0.0000000000
     28575      9498  TIP3      H2             -2.0044303985       36.0704642534       19.1998653365  SOLV      9487            0.0000000000
     28576      9499  TIP3      OH2             4.3722496015       35.6609542534       22.7355653365  SOLV      9488            0.0000000000
     28577      9499  TIP3      H1              5.2465896015       36.0493842534       22.7059953365  SOLV      9488            0.0000000000
     28578      9499  TIP3      H2              4.2363296015       35.4457342534       23.6582853365  SOLV      9488            0.0000000000
     28579      9500  TIP3      OH2             9.9290896015       35.6909342534       24.3847353365  SOLV      9489            0.0000000000
     28580      9500  TIP3      H1             10.0052496015       35.7860942534       23.4353353365  SOLV      9489            0.0000000000
     28581      9500  TIP3      H2              9.6540096015       34.7832242534       24.5136453365  SOLV      9489            0.0000000000
     28582      9501  TIP3      OH2            11.2823496015       35.7167142534       20.0772353365  SOLV      9490            0.0000000000
     28583      9501  TIP3      H1             10.5794596015       36.3316342534       19.8673753365  SOLV      9490            0.0000000000
     28584      9501  TIP3      H2             10.8374896015       34.8793842534       20.2083253365  SOLV      9490            0.0000000000
     28585      9502  TIP3      OH2            17.4853296015       35.5320542534       18.7258653365  SOLV      9491            0.0000000000
     28586      9502  TIP3      H1             17.9243996015       36.1431042534       18.1342153365  SOLV      9491            0.0000000000
     28587      9502  TIP3      H2             16.8515696015       36.0704642534       19.1998653365  SOLV      9491            0.0000000000
     28588      9503  TIP3      OH2             5.0344496015      -26.4558457466       34.8320953365  SOLV      9492            0.0000000000
     28589      9503  TIP3      H1              5.2734296015      -27.2040357466       34.2849853365  SOLV      9492            0.0000000000
     28590      9503  TIP3      H2              4.7655796015      -26.8436757466       35.6648753365  SOLV      9492            0.0000000000
     28591      9504  TIP3      OH2             7.0726296015      -24.5927057466       34.9706953365  SOLV      9493            0.0000000000
     28592      9504  TIP3      H1              6.4287296015      -25.2238457466       35.2920653365  SOLV      9493            0.0000000000
     28593      9504  TIP3      H2              7.8344596015      -25.1239057466       34.7390453365  SOLV      9493            0.0000000000
     28594      9505  TIP3      OH2             4.7492396015      -21.9600557466       36.6314653365  SOLV      9494            0.0000000000
     28595      9505  TIP3      H1              5.6823096015      -21.8021857466       36.7753053365  SOLV      9494            0.0000000000
     28596      9505  TIP3      H2              4.4851196015      -21.2847557466       36.0066153365  SOLV      9494            0.0000000000
     28597      9506  TIP3      OH2             7.3946296015      -22.7342357466       36.8769953365  SOLV      9495            0.0000000000
     28598      9506  TIP3      H1              8.2606496015      -22.3674957466       36.6988153365  SOLV      9495            0.0000000000
     28599      9506  TIP3      H2              7.1479096015      -23.1734357466       36.0630753365  SOLV      9495            0.0000000000
     28600      9507  TIP3      OH2             0.3483996015      -23.0236457466       35.5045853365  SOLV      9496            0.0000000000
     28601      9507  TIP3      H1              0.0808596015      -22.7373557466       36.3778953365  SOLV      9496            0.0000000000
     28602      9507  TIP3      H2              1.1196596015      -23.5697257466       35.6568353365  SOLV      9496            0.0000000000
     28603      9508  TIP3      OH2            -4.0988003985       -6.9456257466       36.0151053365  SOLV      9497            0.0000000000
     28604      9508  TIP3      H1             -4.0254503985       -6.0066057466       36.1856353365  SOLV      9497            0.0000000000
     28605      9508  TIP3      H2             -3.1932903985       -7.2507657466       35.9588353365  SOLV      9497            0.0000000000
     28606      9509  TIP3      OH2            -8.6863803985       -4.2145657466       36.6782153365  SOLV      9498            0.0000000000
     28607      9509  TIP3      H1             -8.3115403985       -4.9589557466       36.2074753365  SOLV      9498            0.0000000000
     28608      9509  TIP3      H2             -8.6820103985       -4.4845057466       37.5965453365  SOLV      9498            0.0000000000
     28609      9510  TIP3      OH2            -7.5094703985      -12.0290757466       35.4555353365  SOLV      9499            0.0000000000
     28610      9510  TIP3      H1             -7.4673903985      -12.2516857466       34.5255353365  SOLV      9499            0.0000000000
     28611      9510  TIP3      H2             -6.6602603985      -11.6303657466       35.6455253365  SOLV      9499            0.0000000000
     28612      9511  TIP3      OH2            -5.3048903985       -6.6880357466       38.5650353365  SOLV      9500            0.0000000000
     28613      9511  TIP3      H1             -5.6777803985       -7.5136557466       38.8740953365  SOLV      9500            0.0000000000
     28614      9511  TIP3      H2             -5.0275403985       -6.8710957466       37.6673753365  SOLV      9500            0.0000000000
     28615      9512  TIP3      OH2            -7.9123303985       -8.7114557466       36.3850953365  SOLV      9501            0.0000000000
     28616      9512  TIP3      H1             -7.5590203985       -9.0914757466       37.1894453365  SOLV      9501            0.0000000000
     28617      9512  TIP3      H2             -8.8609803985       -8.8049757466       36.4720253365  SOLV      9501            0.0000000000
     28618      9513  TIP3      OH2            -3.4088903985       -4.2322057466       36.5861153365  SOLV      9502            0.0000000000
     28619      9513  TIP3      H1             -2.6651003985       -3.6461557466       36.4462753365  SOLV      9502            0.0000000000
     28620      9513  TIP3      H2             -4.1030803985       -3.6636257466       36.9193553365  SOLV      9502            0.0000000000
     28621      9514  TIP3      OH2           -11.7833703985       -5.7367057466       34.9706953365  SOLV      9503            0.0000000000
     28622      9514  TIP3      H1            -12.4272703985       -6.3678457466       35.2920653365  SOLV      9503            0.0000000000
     28623      9514  TIP3      H2            -11.0215403985       -6.2679057466       34.7390453365  SOLV      9503            0.0000000000
     28624      9515  TIP3      OH2            -7.1790803985       -5.9197157466       35.2044953365  SOLV      9504            0.0000000000
     28625      9515  TIP3      H1             -6.8960403985       -6.7141957466       35.6571853365  SOLV      9504            0.0000000000
     28626      9515  TIP3      H2             -6.4392903985       -5.6866157466       34.6436053365  SOLV      9504            0.0000000000
     28627      9516  TIP3      OH2            -4.6141003985      -11.4400057466       35.0759153365  SOLV      9505            0.0000000000
     28628      9516  TIP3      H1             -4.8876203985      -11.8644557466       34.2627453365  SOLV      9505            0.0000000000
     28629      9516  TIP3      H2             -4.5746903985      -10.5085557466       34.8589553365  SOLV      9505            0.0000000000
     28630      9517  TIP3      OH2            -3.4929503985      -12.6166057466       37.2656553365  SOLV      9506            0.0000000000
     28631      9517  TIP3      H1             -4.0148403985      -12.2601957466       36.5467453365  SOLV      9506            0.0000000000
     28632      9517  TIP3      H2             -3.5260303985      -11.9418257466       37.9437453365  SOLV      9506            0.0000000000
     28633      9518  TIP3      OH2            -5.1440503985      -15.3770457466       35.8163653365  SOLV      9507            0.0000000000
     28634      9518  TIP3      H1             -5.0476103985      -14.7103457466       35.1363353365  SOLV      9507            0.0000000000
     28635      9518  TIP3      H2             -5.2840903985      -16.1924157466       35.3349153365  SOLV      9507            0.0000000000
     28636      9519  TIP3      OH2           -11.4613703985       -3.8782357466       36.8769953365  SOLV      9508            0.0000000000
     28637      9519  TIP3      H1            -10.5953503985       -3.5114957466       36.6988153365  SOLV      9508            0.0000000000
     28638      9519  TIP3      H2            -11.7080903985       -4.3174357466       36.0630753365  SOLV      9508            0.0000000000
     28639      9520  TIP3      OH2            -4.7524103985       -4.3152057466       39.5561053365  SOLV      9509            0.0000000000
     28640      9520  TIP3      H1             -4.9467003985       -5.0629957466       38.9910653365  SOLV      9509            0.0000000000
     28641      9520  TIP3      H2             -4.7914003985       -3.5571957466       38.9728953365  SOLV      9509            0.0000000000
     28642      9521  TIP3      OH2            -1.6028003985       -9.2659357466       39.0924153365  SOLV      9510            0.0000000000
     28643      9521  TIP3      H1             -1.8747103985       -9.0368357466       38.2037053365  SOLV      9510            0.0000000000
     28644      9521  TIP3      H2             -1.5572303985       -8.4280557466       39.5529453365  SOLV      9510            0.0000000000
     28645      9522  TIP3      OH2             7.5924996015      -12.4335257466       39.1890353365  SOLV      9511            0.0000000000
     28646      9522  TIP3      H1              6.8810496015      -11.8985557466       38.8370853365  SOLV      9511            0.0000000000
     28647      9522  TIP3      H2              8.2834596015      -12.3783157466       38.5289253365  SOLV      9511            0.0000000000
     28648      9523  TIP3      OH2             7.6464196015      -13.9760957466       36.2275353365  SOLV      9512            0.0000000000
     28649      9523  TIP3      H1              8.3474096015      -13.9534057466       36.8789353365  SOLV      9512            0.0000000000
     28650      9523  TIP3      H2              7.9487096015      -14.6041257466       35.5714653365  SOLV      9512            0.0000000000
     28651      9524  TIP3      OH2            10.9982696015      -12.2241957466       40.1406253365  SOLV      9513            0.0000000000
     28652      9524  TIP3      H1             10.2663696015      -11.9958257466       40.7136853365  SOLV      9513            0.0000000000
     28653      9524  TIP3      H2             11.4454896015      -12.9379257466       40.5953753365  SOLV      9513            0.0000000000
     28654      9525  TIP3      OH2             9.8692196015      -13.0619057466       37.8257453365  SOLV      9514            0.0000000000
     28655      9525  TIP3      H1             10.4487696015      -12.9118757466       38.5726353365  SOLV      9514            0.0000000000
     28656      9525  TIP3      H2             10.2832196015      -12.5911657466       37.1023853365  SOLV      9514            0.0000000000
     28657      9526  TIP3      OH2             1.6339096015      -12.5241457466       39.6124053365  SOLV      9515            0.0000000000
     28658      9526  TIP3      H1              1.3420396015      -11.7559757466       39.1215353365  SOLV      9515            0.0000000000
     28659      9526  TIP3      H2              0.9594296015      -13.1835257466       39.4495453365  SOLV      9515            0.0000000000
     28660      9527  TIP3      OH2            14.7571996015       -6.9456257466       36.0151053365  SOLV      9516            0.0000000000
     28661      9527  TIP3      H1             14.8305496015       -6.0066057466       36.1856353365  SOLV      9516            0.0000000000
     28662      9527  TIP3      H2             15.6627096015       -7.2507657466       35.9588353365  SOLV      9516            0.0000000000
     28663      9528  TIP3      OH2             7.0680196015       -3.3685857466       39.6759753365  SOLV      9517            0.0000000000
     28664      9528  TIP3      H1              6.9926196015       -3.4898657466       38.7294953365  SOLV      9517            0.0000000000
     28665      9528  TIP3      H2              7.1008896015       -2.4193157466       39.7944353365  SOLV      9517            0.0000000000
     28666      9529  TIP3      OH2            10.1696196015       -4.2145657466       36.6782153365  SOLV      9518            0.0000000000
     28667      9529  TIP3      H1             10.5444596015       -4.9589557466       36.2074753365  SOLV      9518            0.0000000000
     28668      9529  TIP3      H2             10.1739896015       -4.4845057466       37.5965453365  SOLV      9518            0.0000000000
     28669      9530  TIP3      OH2             9.8384296015       -4.2888557466       39.4274353365  SOLV      9519            0.0000000000
     28670      9530  TIP3      H1              8.9034096015       -4.1886657466       39.6061353365  SOLV      9519            0.0000000000
     28671      9530  TIP3      H2             10.1186196015       -4.9982557466       40.0057553365  SOLV      9519            0.0000000000
     28672      9531  TIP3      OH2            11.3465296015      -12.0290757466       35.4555353365  SOLV      9520            0.0000000000
     28673      9531  TIP3      H1             11.3886096015      -12.2516857466       34.5255353365  SOLV      9520            0.0000000000
     28674      9531  TIP3      H2             12.1957396015      -11.6303657466       35.6455253365  SOLV      9520            0.0000000000
     28675      9532  TIP3      OH2             6.9192796015      -18.1532557466       36.1258653365  SOLV      9521            0.0000000000
     28676      9532  TIP3      H1              6.6657596015      -18.1340957466       37.0486753365  SOLV      9521            0.0000000000
     28677      9532  TIP3      H2              6.6624896015      -19.0247157466       35.8244853365  SOLV      9521            0.0000000000
     28678      9533  TIP3      OH2             8.2182396015      -14.7651457466       40.2901853365  SOLV      9522            0.0000000000
     28679      9533  TIP3      H1              7.8092696015      -13.9502857466       39.9986653365  SOLV      9522            0.0000000000
     28680      9533  TIP3      H2              8.9388596015      -14.9051357466       39.6758953365  SOLV      9522            0.0000000000
     28681      9534  TIP3      OH2             3.8015696015      -17.7076057466       35.2269053365  SOLV      9523            0.0000000000
     28682      9534  TIP3      H1              3.3706396015      -18.1525957466       35.9566453365  SOLV      9523            0.0000000000
     28683      9534  TIP3      H2              3.0834396015      -17.3359757466       34.7146553365  SOLV      9523            0.0000000000
     28684      9535  TIP3      OH2             3.7457396015      -16.1245357466       39.0427353365  SOLV      9524            0.0000000000
     28685      9535  TIP3      H1              4.6772896015      -15.9955357466       39.2210453365  SOLV      9524            0.0000000000
     28686      9535  TIP3      H2              3.5307696015      -15.4551057466       38.3932053365  SOLV      9524            0.0000000000
     28687      9536  TIP3      OH2             2.4197596015      -14.9303157466       36.6093453365  SOLV      9525            0.0000000000
     28688      9536  TIP3      H1              1.8772696015      -15.3099357466       35.9181053365  SOLV      9525            0.0000000000
     28689      9536  TIP3      H2              3.2532496015      -14.7358457466       36.1807553365  SOLV      9525            0.0000000000
     28690      9537  TIP3      OH2             5.7550396015      -10.3647457466       38.5451553365  SOLV      9526            0.0000000000
     28691      9537  TIP3      H1              5.0101396015      -10.8722157466       38.2229453365  SOLV      9526            0.0000000000
     28692      9537  TIP3      H2              5.6207596015      -10.3159457466       39.4916353365  SOLV      9526            0.0000000000
     28693      9538  TIP3      OH2             9.6527196015      -17.5507557466       36.7444153365  SOLV      9527            0.0000000000
     28694      9538  TIP3      H1              8.7141396015      -17.4391957466       36.5932953365  SOLV      9527            0.0000000000
     28695      9538  TIP3      H2              9.9499296015      -16.6940657466       37.0509853365  SOLV      9527            0.0000000000
     28696      9539  TIP3      OH2            10.3710696015      -15.6834857466       38.4051553365  SOLV      9528            0.0000000000
     28697      9539  TIP3      H1             11.2629696015      -15.8209857466       38.7242753365  SOLV      9528            0.0000000000
     28698      9539  TIP3      H2             10.4274296015      -14.8928757466       37.8685053365  SOLV      9528            0.0000000000
     28699      9540  TIP3      OH2             7.8804496015       -8.9063157466       37.5706153365  SOLV      9529            0.0000000000
     28700      9540  TIP3      H1              7.5852896015       -8.0795257466       37.9520953365  SOLV      9529            0.0000000000
     28701      9540  TIP3      H2              7.1774496015       -9.5256257466       37.7667553365  SOLV      9529            0.0000000000
     28702      9541  TIP3      OH2            15.2559396015      -15.4740757466       38.0998253365  SOLV      9530            0.0000000000
     28703      9541  TIP3      H1             14.7015696015      -15.8702757466       37.4275753365  SOLV      9530            0.0000000000
     28704      9541  TIP3      H2             15.3562996015      -14.5635557466       37.8221553365  SOLV      9530            0.0000000000
     28705      9542  TIP3      OH2            13.5511096015       -6.6880357466       38.5650353365  SOLV      9531            0.0000000000
     28706      9542  TIP3      H1             13.1782196015       -7.5136557466       38.8740953365  SOLV      9531            0.0000000000
     28707      9542  TIP3      H2             13.8284596015       -6.8710957466       37.6673753365  SOLV      9531            0.0000000000
     28708      9543  TIP3      OH2            -0.9904203985      -12.6895157466       36.3063353365  SOLV      9532            0.0000000000
     28709      9543  TIP3      H1             -0.3744303985      -12.0627957466       36.6858153365  SOLV      9532            0.0000000000
     28710      9543  TIP3      H2             -1.8521603985      -12.3735357466       36.5779853365  SOLV      9532            0.0000000000
     28711      9544  TIP3      OH2            10.9436696015       -8.7114557466       36.3850953365  SOLV      9533            0.0000000000
     28712      9544  TIP3      H1             11.2969796015       -9.0914757466       37.1894453365  SOLV      9533            0.0000000000
     28713      9544  TIP3      H2              9.9950196015       -8.8049757466       36.4720253365  SOLV      9533            0.0000000000
     28714      9545  TIP3      OH2            15.4471096015       -4.2322057466       36.5861153365  SOLV      9534            0.0000000000
     28715      9545  TIP3      H1             16.1908996015       -3.6461557466       36.4462753365  SOLV      9534            0.0000000000
     28716      9545  TIP3      H2             14.7529196015       -3.6636257466       36.9193553365  SOLV      9534            0.0000000000
     28717      9546  TIP3      OH2            11.8095996015      -10.0392557466       38.6118853365  SOLV      9535            0.0000000000
     28718      9546  TIP3      H1             11.5323596015      -10.7673257466       39.1679953365  SOLV      9535            0.0000000000
     28719      9546  TIP3      H2             12.7368996015       -9.9200557466       38.8171453365  SOLV      9535            0.0000000000
     28720      9547  TIP3      OH2             5.0344496015       -7.5998457466       34.8320953365  SOLV      9536            0.0000000000
     28721      9547  TIP3      H1              5.2734296015       -8.3480357466       34.2849853365  SOLV      9536            0.0000000000
     28722      9547  TIP3      H2              4.7655796015       -7.9876757466       35.6648753365  SOLV      9536            0.0000000000
     28723      9548  TIP3      OH2             3.9715096015       -8.0294657466       37.2883553365  SOLV      9537            0.0000000000
     28724      9548  TIP3      H1              4.1183096015       -8.5494857466       38.0784453365  SOLV      9537            0.0000000000
     28725      9548  TIP3      H2              3.9686796015       -7.1227057466       37.5949453365  SOLV      9537            0.0000000000
     28726      9549  TIP3      OH2             0.4246196015      -10.7771357466       37.7988953365  SOLV      9538            0.0000000000
     28727      9549  TIP3      H1             -0.2614503985      -10.4248857466       38.3658653365  SOLV      9538            0.0000000000
     28728      9549  TIP3      H2              0.9474096015      -10.0141757466       37.5523253365  SOLV      9538            0.0000000000
     28729      9550  TIP3      OH2             9.0406196015      -18.4625857466       39.1750253365  SOLV      9539            0.0000000000
     28730      9550  TIP3      H1              9.2604496015      -17.9910457466       38.3715653365  SOLV      9539            0.0000000000
     28731      9550  TIP3      H2              9.5990196015      -18.0683257466       39.8450853365  SOLV      9539            0.0000000000
     28732      9551  TIP3      OH2             6.7092296015       -6.3321057466       38.0377753365  SOLV      9540            0.0000000000
     28733      9551  TIP3      H1              5.8928396015       -5.8351357466       38.0902053365  SOLV      9540            0.0000000000
     28734      9551  TIP3      H2              7.2388596015       -5.8567557466       37.3976553365  SOLV      9540            0.0000000000
     28735      9552  TIP3      OH2             6.2406096015      -16.7347057466       40.0098653365  SOLV      9541            0.0000000000
     28736      9552  TIP3      H1              7.0528696015      -16.2303857466       40.0560353365  SOLV      9541            0.0000000000
     28737      9552  TIP3      H2              5.9959096015      -16.8797357466       40.9238253365  SOLV      9541            0.0000000000
     28738      9553  TIP3      OH2             4.0475396015       -5.2883857466       38.0194653365  SOLV      9542            0.0000000000
     28739      9553  TIP3      H1              4.2084096015       -4.4886357466       37.5187253365  SOLV      9542            0.0000000000
     28740      9553  TIP3      H2              3.8503196015       -4.9817857466       38.9045253365  SOLV      9542            0.0000000000
     28741      9554  TIP3      OH2             2.7819796015      -18.5904657466       37.6352253365  SOLV      9543            0.0000000000
     28742      9554  TIP3      H1              2.6984596015      -17.7021557466       37.9818653365  SOLV      9543            0.0000000000
     28743      9554  TIP3      H2              3.6720096015      -18.8557957466       37.8669053365  SOLV      9543            0.0000000000
     28744      9555  TIP3      OH2             1.0405096015       -8.1632457466       36.6956753365  SOLV      9544            0.0000000000
     28745      9555  TIP3      H1              1.6326596015       -7.4637657466       36.9719153365  SOLV      9544            0.0000000000
     28746      9555  TIP3      H2              1.4998096015       -8.5962957466       35.9761353365  SOLV      9544            0.0000000000
     28747      9556  TIP3      OH2            -0.6435703985      -15.4989457466       35.8116153365  SOLV      9545            0.0000000000
     28748      9556  TIP3      H1             -0.6883103985      -14.5596357466       35.9903153365  SOLV      9545            0.0000000000
     28749      9556  TIP3      H2             -1.5312503985      -15.7344557466       35.5418253365  SOLV      9545            0.0000000000
     28750      9557  TIP3      OH2            -0.9050403985       -6.7765757466       40.6452953365  SOLV      9546            0.0000000000
     28751      9557  TIP3      H1             -1.7371803985       -6.3043057466       40.6724353365  SOLV      9546            0.0000000000
     28752      9557  TIP3      H2             -0.3592103985       -6.2668157466       40.0466053365  SOLV      9546            0.0000000000
     28753      9558  TIP3      OH2             7.0726296015       -5.7367057466       34.9706953365  SOLV      9547            0.0000000000
     28754      9558  TIP3      H1              6.4287296015       -6.3678457466       35.2920653365  SOLV      9547            0.0000000000
     28755      9558  TIP3      H2              7.8344596015       -6.2679057466       34.7390453365  SOLV      9547            0.0000000000
     28756      9559  TIP3      OH2            11.6769196015       -5.9197157466       35.2044953365  SOLV      9548            0.0000000000
     28757      9559  TIP3      H1             11.9599596015       -6.7141957466       35.6571853365  SOLV      9548            0.0000000000
     28758      9559  TIP3      H2             12.4167096015       -5.6866157466       34.6436053365  SOLV      9548            0.0000000000
     28759      9560  TIP3      OH2             2.6316496015      -10.0102257466       35.0619853365  SOLV      9549            0.0000000000
     28760      9560  TIP3      H1              2.6960596015      -10.8042657466       35.5926253365  SOLV      9549            0.0000000000
     28761      9560  TIP3      H2              3.2845696015      -10.1289457466       34.3721853365  SOLV      9549            0.0000000000
     28762      9561  TIP3      OH2             7.9839896015       -8.9630557466       34.7977853365  SOLV      9550            0.0000000000
     28763      9561  TIP3      H1              7.7153996015       -8.7828457466       35.6986753365  SOLV      9550            0.0000000000
     28764      9561  TIP3      H2              7.7775496015       -9.8884357466       34.6663653365  SOLV      9550            0.0000000000
     28765      9562  TIP3      OH2             3.7810296015      -12.0376057466       37.3677853365  SOLV      9551            0.0000000000
     28766      9562  TIP3      H1              3.3212296015      -12.5217757466       38.0536353365  SOLV      9551            0.0000000000
     28767      9562  TIP3      H2              4.0358996015      -12.7060657466       36.7318353365  SOLV      9551            0.0000000000
     28768      9563  TIP3      OH2             4.8520696015      -13.7944257466       35.6301053365  SOLV      9552            0.0000000000
     28769      9563  TIP3      H1              4.6715696015      -13.9493057466       34.7029353365  SOLV      9552            0.0000000000
     28770      9563  TIP3      H2              5.8021196015      -13.6865557466       35.6748953365  SOLV      9552            0.0000000000
     28771      9564  TIP3      OH2            14.2418996015      -11.4400057466       35.0759153365  SOLV      9553            0.0000000000
     28772      9564  TIP3      H1             13.9683796015      -11.8644557466       34.2627453365  SOLV      9553            0.0000000000
     28773      9564  TIP3      H2             14.2813096015      -10.5085557466       34.8589553365  SOLV      9553            0.0000000000
     28774      9565  TIP3      OH2             4.7492396015       -3.1040557466       36.6314653365  SOLV      9554            0.0000000000
     28775      9565  TIP3      H1              5.6823096015       -2.9461857466       36.7753053365  SOLV      9554            0.0000000000
     28776      9565  TIP3      H2              4.4851196015       -2.4287557466       36.0066153365  SOLV      9554            0.0000000000
     28777      9566  TIP3      OH2            -1.6822703985       -8.4676757466       36.1142753365  SOLV      9555            0.0000000000
     28778      9566  TIP3      H1             -0.7683503985       -8.3887857466       36.3876653365  SOLV      9555            0.0000000000
     28779      9566  TIP3      H2             -1.6749603985       -9.1547157466       35.4478353365  SOLV      9555            0.0000000000
     28780      9567  TIP3      OH2            14.7001796015      -10.5711957466       39.0509553365  SOLV      9556            0.0000000000
     28781      9567  TIP3      H1             15.5503196015      -10.1501057466       39.1781153365  SOLV      9556            0.0000000000
     28782      9567  TIP3      H2             14.7056896015      -11.3111857466       39.6580953365  SOLV      9556            0.0000000000
     28783      9568  TIP3      OH2            15.3630496015      -12.6166057466       37.2656553365  SOLV      9557            0.0000000000
     28784      9568  TIP3      H1             14.8411596015      -12.2601957466       36.5467453365  SOLV      9557            0.0000000000
     28785      9568  TIP3      H2             15.3299696015      -11.9418257466       37.9437453365  SOLV      9557            0.0000000000
     28786      9569  TIP3      OH2            13.7119496015      -15.3770457466       35.8163653365  SOLV      9558            0.0000000000
     28787      9569  TIP3      H1             13.8083896015      -14.7103457466       35.1363353365  SOLV      9558            0.0000000000
     28788      9569  TIP3      H2             13.5719096015      -16.1924157466       35.3349153365  SOLV      9558            0.0000000000
     28789      9570  TIP3      OH2            12.9593296015      -17.9690657466       34.9339153365  SOLV      9559            0.0000000000
     28790      9570  TIP3      H1             13.5699096015      -18.3403857466       35.5707353365  SOLV      9559            0.0000000000
     28791      9570  TIP3      H2             12.1224796015      -18.3903757466       35.1299153365  SOLV      9559            0.0000000000
     28792      9571  TIP3      OH2            -1.4697203985       -5.0877257466       38.4793753365  SOLV      9560            0.0000000000
     28793      9571  TIP3      H1             -2.1547303985       -5.1258357466       37.8118853365  SOLV      9560            0.0000000000
     28794      9571  TIP3      H2             -1.4660003985       -4.1749657466       38.7675853365  SOLV      9560            0.0000000000
     28795      9572  TIP3      OH2             0.4902396015      -19.1197957466       36.0242753365  SOLV      9561            0.0000000000
     28796      9572  TIP3      H1              0.9815796015      -19.7495557466       35.4968253365  SOLV      9561            0.0000000000
     28797      9572  TIP3      H2              1.1138696015      -18.8238557466       36.6873953365  SOLV      9561            0.0000000000
     28798      9573  TIP3      OH2             5.5162496015      -18.8266457466       38.4813253365  SOLV      9562            0.0000000000
     28799      9573  TIP3      H1              5.6943796015      -19.4733257466       39.1641853365  SOLV      9562            0.0000000000
     28800      9573  TIP3      H2              5.4628696015      -17.9928757466       38.9484353365  SOLV      9562            0.0000000000
     28801      9574  TIP3      OH2             7.3946296015       -3.8782357466       36.8769953365  SOLV      9563            0.0000000000
     28802      9574  TIP3      H1              8.2606496015       -3.5114957466       36.6988153365  SOLV      9563            0.0000000000
     28803      9574  TIP3      H2              7.1479096015       -4.3174357466       36.0630753365  SOLV      9563            0.0000000000
     28804      9575  TIP3      OH2             0.3483996015       -4.1676457466       35.5045853365  SOLV      9564            0.0000000000
     28805      9575  TIP3      H1              0.0808596015       -3.8813557466       36.3778953365  SOLV      9564            0.0000000000
     28806      9575  TIP3      H2              1.1196596015       -4.7137257466       35.6568353365  SOLV      9564            0.0000000000
     28807      9576  TIP3      OH2            17.2531996015       -9.2659357466       39.0924153365  SOLV      9565            0.0000000000
     28808      9576  TIP3      H1             16.9812896015       -9.0368357466       38.2037053365  SOLV      9565            0.0000000000
     28809      9576  TIP3      H2             17.2987696015       -8.4280557466       39.5529453365  SOLV      9565            0.0000000000
     28810      9577  TIP3      OH2            17.8655796015      -12.6895157466       36.3063353365  SOLV      9566            0.0000000000
     28811      9577  TIP3      H1             18.4815696015      -12.0627957466       36.6858153365  SOLV      9566            0.0000000000
     28812      9577  TIP3      H2             17.0038396015      -12.3735357466       36.5779853365  SOLV      9566            0.0000000000
     28813      9578  TIP3      OH2            19.2806196015      -10.7771357466       37.7988953365  SOLV      9567            0.0000000000
     28814      9578  TIP3      H1             18.5945496015      -10.4248857466       38.3658653365  SOLV      9567            0.0000000000
     28815      9578  TIP3      H2             19.8034096015      -10.0141757466       37.5523253365  SOLV      9567            0.0000000000
     28816      9579  TIP3      OH2            19.8965096015       -8.1632457466       36.6956753365  SOLV      9568            0.0000000000
     28817      9579  TIP3      H1             20.4886596015       -7.4637657466       36.9719153365  SOLV      9568            0.0000000000
     28818      9579  TIP3      H2             20.3558096015       -8.5962957466       35.9761353365  SOLV      9568            0.0000000000
     28819      9580  TIP3      OH2            18.2124296015      -15.4989457466       35.8116153365  SOLV      9569            0.0000000000
     28820      9580  TIP3      H1             18.1676896015      -14.5596357466       35.9903153365  SOLV      9569            0.0000000000
     28821      9580  TIP3      H2             17.3247496015      -15.7344557466       35.5418253365  SOLV      9569            0.0000000000
     28822      9581  TIP3      OH2            21.4876496015      -10.0102257466       35.0619853365  SOLV      9570            0.0000000000
     28823      9581  TIP3      H1             21.5520596015      -10.8042657466       35.5926253365  SOLV      9570            0.0000000000
     28824      9581  TIP3      H2             22.1405696015      -10.1289457466       34.3721853365  SOLV      9570            0.0000000000
     28825      9582  TIP3      OH2            17.1737296015       -8.4676757466       36.1142753365  SOLV      9571            0.0000000000
     28826      9582  TIP3      H1             18.0876496015       -8.3887857466       36.3876653365  SOLV      9571            0.0000000000
     28827      9582  TIP3      H2             17.1810396015       -9.1547157466       35.4478353365  SOLV      9571            0.0000000000
     28828      9583  TIP3      OH2           -22.9548003985       11.9103742534       36.0151053365  SOLV      9572            0.0000000000
     28829      9583  TIP3      H1            -22.8814503985       12.8493942534       36.1856353365  SOLV      9572            0.0000000000
     28830      9583  TIP3      H2            -22.0492903985       11.6052342534       35.9588353365  SOLV      9572            0.0000000000
     28831      9584  TIP3      OH2           -26.0350803985       12.9362842534       35.2044953365  SOLV      9573            0.0000000000
     28832      9584  TIP3      H1            -25.7520403985       12.1418042534       35.6571853365  SOLV      9573            0.0000000000
     28833      9584  TIP3      H2            -25.2952903985       13.1693842534       34.6436053365  SOLV      9573            0.0000000000
     28834      9585  TIP3      OH2           -23.4701003985        7.4159942534       35.0759153365  SOLV      9574            0.0000000000
     28835      9585  TIP3      H1            -23.7436203985        6.9915442534       34.2627453365  SOLV      9574            0.0000000000
     28836      9585  TIP3      H2            -23.4306903985        8.3474442534       34.8589553365  SOLV      9574            0.0000000000
     28837      9586  TIP3      OH2           -11.2635003985        6.4224742534       39.1890353365  SOLV      9575            0.0000000000
     28838      9586  TIP3      H1            -11.9749503985        6.9574442534       38.8370853365  SOLV      9575            0.0000000000
     28839      9586  TIP3      H2            -10.5725403985        6.4776842534       38.5289253365  SOLV      9575            0.0000000000
     28840      9587  TIP3      OH2           -11.2095803985        4.8799042534       36.2275353365  SOLV      9576            0.0000000000
     28841      9587  TIP3      H1            -10.5085903985        4.9025942534       36.8789353365  SOLV      9576            0.0000000000
     28842      9587  TIP3      H2            -10.9072903985        4.2518742534       35.5714653365  SOLV      9576            0.0000000000
     28843      9588  TIP3      OH2            -7.8577303985        6.6318042534       40.1406253365  SOLV      9577            0.0000000000
     28844      9588  TIP3      H1             -8.5896303985        6.8601742534       40.7136853365  SOLV      9577            0.0000000000
     28845      9588  TIP3      H2             -7.4105103985        5.9180742534       40.5953753365  SOLV      9577            0.0000000000
     28846      9589  TIP3      OH2            -8.9867803985        5.7940942534       37.8257453365  SOLV      9578            0.0000000000
     28847      9589  TIP3      H1             -8.4072303985        5.9441242534       38.5726353365  SOLV      9578            0.0000000000
     28848      9589  TIP3      H2             -8.5727803985        6.2648342534       37.1023853365  SOLV      9578            0.0000000000
     28849      9590  TIP3      OH2            -5.2879403985       -2.4558657466       37.6387153365  SOLV      9579            0.0000000000
     28850      9590  TIP3      H1             -6.1878703985       -2.3169657466       37.9337753365  SOLV      9579            0.0000000000
     28851      9590  TIP3      H2             -5.0361003985       -1.6244057466       37.2368853365  SOLV      9579            0.0000000000
     28852      9591  TIP3      OH2            -4.0988003985       11.9103742534       36.0151053365  SOLV      9580            0.0000000000
     28853      9591  TIP3      H1             -4.0254503985       12.8493942534       36.1856353365  SOLV      9580            0.0000000000
     28854      9591  TIP3      H2             -3.1932903985       11.6052342534       35.9588353365  SOLV      9580            0.0000000000
     28855      9592  TIP3      OH2           -11.7879803985       15.4874142534       39.6759753365  SOLV      9581            0.0000000000
     28856      9592  TIP3      H1            -11.8633803985       15.3661342534       38.7294953365  SOLV      9581            0.0000000000
     28857      9592  TIP3      H2            -11.7551103985       16.4366842534       39.7944353365  SOLV      9581            0.0000000000
     28858      9593  TIP3      OH2            -8.6863803985       14.6414342534       36.6782153365  SOLV      9582            0.0000000000
     28859      9593  TIP3      H1             -8.3115403985       13.8970442534       36.2074753365  SOLV      9582            0.0000000000
     28860      9593  TIP3      H2             -8.6820103985       14.3714942534       37.5965453365  SOLV      9582            0.0000000000
     28861      9594  TIP3      OH2            -9.0175703985       14.5671442534       39.4274353365  SOLV      9583            0.0000000000
     28862      9594  TIP3      H1             -9.9525903985       14.6673342534       39.6061353365  SOLV      9583            0.0000000000
     28863      9594  TIP3      H2             -8.7373803985       13.8577442534       40.0057553365  SOLV      9583            0.0000000000
     28864      9595  TIP3      OH2            -7.5094703985        6.8269242534       35.4555353365  SOLV      9584            0.0000000000
     28865      9595  TIP3      H1             -7.4673903985        6.6043142534       34.5255353365  SOLV      9584            0.0000000000
     28866      9595  TIP3      H2             -6.6602603985        7.2256342534       35.6455253365  SOLV      9584            0.0000000000
     28867      9596  TIP3      OH2           -11.9367203985        0.7027442534       36.1258653365  SOLV      9585            0.0000000000
     28868      9596  TIP3      H1            -12.1902403985        0.7219042534       37.0486753365  SOLV      9585            0.0000000000
     28869      9596  TIP3      H2            -12.1935103985       -0.1687157466       35.8244853365  SOLV      9585            0.0000000000
     28870      9597  TIP3      OH2           -10.6377603985        4.0908542534       40.2901853365  SOLV      9586            0.0000000000
     28871      9597  TIP3      H1            -11.0467303985        4.9057142534       39.9986653365  SOLV      9586            0.0000000000
     28872      9597  TIP3      H2             -9.9171403985        3.9508642534       39.6758953365  SOLV      9586            0.0000000000
     28873      9598  TIP3      OH2           -15.0544303985        1.1483942534       35.2269053365  SOLV      9587            0.0000000000
     28874      9598  TIP3      H1            -15.4853603985        0.7034042534       35.9566453365  SOLV      9587            0.0000000000
     28875      9598  TIP3      H2            -15.7725603985        1.5200242534       34.7146553365  SOLV      9587            0.0000000000
     28876      9599  TIP3      OH2           -16.4362403985        3.9256842534       36.6093453365  SOLV      9588            0.0000000000
     28877      9599  TIP3      H1            -16.9787303985        3.5460642534       35.9181053365  SOLV      9588            0.0000000000
     28878      9599  TIP3      H2            -15.6027503985        4.1201542534       36.1807553365  SOLV      9588            0.0000000000
     28879      9600  TIP3      OH2           -13.1009603985        8.4912542534       38.5451553365  SOLV      9589            0.0000000000
     28880      9600  TIP3      H1            -13.8458603985        7.9837842534       38.2229453365  SOLV      9589            0.0000000000
     28881      9600  TIP3      H2            -13.2352403985        8.5400542534       39.4916353365  SOLV      9589            0.0000000000
     28882      9601  TIP3      OH2            -9.2032803985        1.3052442534       36.7444153365  SOLV      9590            0.0000000000
     28883      9601  TIP3      H1            -10.1418603985        1.4168042534       36.5932953365  SOLV      9590            0.0000000000
     28884      9601  TIP3      H2             -8.9060703985        2.1619342534       37.0509853365  SOLV      9590            0.0000000000
     28885      9602  TIP3      OH2            -8.4849303985        3.1725142534       38.4051553365  SOLV      9591            0.0000000000
     28886      9602  TIP3      H1             -7.5930303985        3.0350142534       38.7242753365  SOLV      9591            0.0000000000
     28887      9602  TIP3      H2             -8.4285703985        3.9631242534       37.8685053365  SOLV      9591            0.0000000000
     28888      9603  TIP3      OH2           -10.9755503985        9.9496842534       37.5706153365  SOLV      9592            0.0000000000
     28889      9603  TIP3      H1            -11.2707103985       10.7764742534       37.9520953365  SOLV      9592            0.0000000000
     28890      9603  TIP3      H2            -11.6785503985        9.3303742534       37.7667553365  SOLV      9592            0.0000000000
     28891      9604  TIP3      OH2            -3.6000603985        3.3819242534       38.0998253365  SOLV      9593            0.0000000000
     28892      9604  TIP3      H1             -4.1544303985        2.9857242534       37.4275753365  SOLV      9593            0.0000000000
     28893      9604  TIP3      H2             -3.4997003985        4.2924442534       37.8221553365  SOLV      9593            0.0000000000
     28894      9605  TIP3      OH2            -5.3048903985       12.1679642534       38.5650353365  SOLV      9594            0.0000000000
     28895      9605  TIP3      H1             -5.6777803985       11.3423442534       38.8740953365  SOLV      9594            0.0000000000
     28896      9605  TIP3      H2             -5.0275403985       11.9849042534       37.6673753365  SOLV      9594            0.0000000000
     28897      9606  TIP3      OH2            -7.9123303985       10.1445442534       36.3850953365  SOLV      9595            0.0000000000
     28898      9606  TIP3      H1             -7.5590203985        9.7645242534       37.1894453365  SOLV      9595            0.0000000000
     28899      9606  TIP3      H2             -8.8609803985       10.0510242534       36.4720253365  SOLV      9595            0.0000000000
     28900      9607  TIP3      OH2            -3.4088903985       14.6237942534       36.5861153365  SOLV      9596            0.0000000000
     28901      9607  TIP3      H1             -2.6651003985       15.2098442534       36.4462753365  SOLV      9596            0.0000000000
     28902      9607  TIP3      H2             -4.1030803985       15.1923742534       36.9193553365  SOLV      9596            0.0000000000
     28903      9608  TIP3      OH2            -7.0464003985        8.8167442534       38.6118853365  SOLV      9597            0.0000000000
     28904      9608  TIP3      H1             -7.3236403985        8.0886742534       39.1679953365  SOLV      9597            0.0000000000
     28905      9608  TIP3      H2             -6.1191003985        8.9359442534       38.8171453365  SOLV      9597            0.0000000000
     28906      9609  TIP3      OH2           -13.8215503985       11.2561542534       34.8320953365  SOLV      9598            0.0000000000
     28907      9609  TIP3      H1            -13.5825703985       10.5079642534       34.2849853365  SOLV      9598            0.0000000000
     28908      9609  TIP3      H2            -14.0904203985       10.8683242534       35.6648753365  SOLV      9598            0.0000000000
     28909      9610  TIP3      OH2           -14.8844903985       10.8265342534       37.2883553365  SOLV      9599            0.0000000000
     28910      9610  TIP3      H1            -14.7376903985       10.3065142534       38.0784453365  SOLV      9599            0.0000000000
     28911      9610  TIP3      H2            -14.8873203985       11.7332942534       37.5949453365  SOLV      9599            0.0000000000
     28912      9611  TIP3      OH2           -18.4313803985        8.0788642534       37.7988953365  SOLV      9600            0.0000000000
     28913      9611  TIP3      H1            -19.1174503985        8.4311142534       38.3658653365  SOLV      9600            0.0000000000
     28914      9611  TIP3      H2            -17.9085903985        8.8418242534       37.5523253365  SOLV      9600            0.0000000000
     28915      9612  TIP3      OH2            -9.8153803985        0.3934142534       39.1750253365  SOLV      9601            0.0000000000
     28916      9612  TIP3      H1             -9.5955503985        0.8649542534       38.3715653365  SOLV      9601            0.0000000000
     28917      9612  TIP3      H2             -9.2569803985        0.7876742534       39.8450853365  SOLV      9601            0.0000000000
     28918      9613  TIP3      OH2           -12.1467703985       12.5238942534       38.0377753365  SOLV      9602            0.0000000000
     28919      9613  TIP3      H1            -12.9631603985       13.0208642534       38.0902053365  SOLV      9602            0.0000000000
     28920      9613  TIP3      H2            -11.6171403985       12.9992442534       37.3976553365  SOLV      9602            0.0000000000
     28921      9614  TIP3      OH2           -14.8084603985       13.5676142534       38.0194653365  SOLV      9603            0.0000000000
     28922      9614  TIP3      H1            -14.6475903985       14.3673642534       37.5187253365  SOLV      9603            0.0000000000
     28923      9614  TIP3      H2            -15.0056803985       13.8742142534       38.9045253365  SOLV      9603            0.0000000000
     28924      9615  TIP3      OH2           -17.8154903985       10.6927542534       36.6956753365  SOLV      9604            0.0000000000
     28925      9615  TIP3      H1            -17.2233403985       11.3922342534       36.9719153365  SOLV      9604            0.0000000000
     28926      9615  TIP3      H2            -17.3561903985       10.2597042534       35.9761353365  SOLV      9604            0.0000000000
     28927      9616  TIP3      OH2           -11.7833703985       13.1192942534       34.9706953365  SOLV      9605            0.0000000000
     28928      9616  TIP3      H1            -12.4272703985       12.4881542534       35.2920653365  SOLV      9605            0.0000000000
     28929      9616  TIP3      H2            -11.0215403985       12.5880942534       34.7390453365  SOLV      9605            0.0000000000
     28930      9617  TIP3      OH2            -7.1790803985       12.9362842534       35.2044953365  SOLV      9606            0.0000000000
     28931      9617  TIP3      H1             -6.8960403985       12.1418042534       35.6571853365  SOLV      9606            0.0000000000
     28932      9617  TIP3      H2             -6.4392903985       13.1693842534       34.6436053365  SOLV      9606            0.0000000000
     28933      9618  TIP3      OH2           -16.2243503985        8.8457742534       35.0619853365  SOLV      9607            0.0000000000
     28934      9618  TIP3      H1            -16.1599403985        8.0517342534       35.5926253365  SOLV      9607            0.0000000000
     28935      9618  TIP3      H2            -15.5714303985        8.7270542534       34.3721853365  SOLV      9607            0.0000000000
     28936      9619  TIP3      OH2           -10.8720103985        9.8929442534       34.7977853365  SOLV      9608            0.0000000000
     28937      9619  TIP3      H1            -11.1406003985       10.0731542534       35.6986753365  SOLV      9608            0.0000000000
     28938      9619  TIP3      H2            -11.0784503985        8.9675642534       34.6663653365  SOLV      9608            0.0000000000
     28939      9620  TIP3      OH2           -15.0749703985        6.8183942534       37.3677853365  SOLV      9609            0.0000000000
     28940      9620  TIP3      H1            -15.5347703985        6.3342242534       38.0536353365  SOLV      9609            0.0000000000
     28941      9620  TIP3      H2            -14.8201003985        6.1499342534       36.7318353365  SOLV      9609            0.0000000000
     28942      9621  TIP3      OH2           -14.0039303985        5.0615742534       35.6301053365  SOLV      9610            0.0000000000
     28943      9621  TIP3      H1            -14.1844303985        4.9066942534       34.7029353365  SOLV      9610            0.0000000000
     28944      9621  TIP3      H2            -13.0538803985        5.1694442534       35.6748953365  SOLV      9610            0.0000000000
     28945      9622  TIP3      OH2            -4.6141003985        7.4159942534       35.0759153365  SOLV      9611            0.0000000000
     28946      9622  TIP3      H1             -4.8876203985        6.9915442534       34.2627453365  SOLV      9611            0.0000000000
     28947      9622  TIP3      H2             -4.5746903985        8.3474442534       34.8589553365  SOLV      9611            0.0000000000
     28948      9623  TIP3      OH2           -14.1067603985       15.7519442534       36.6314653365  SOLV      9612            0.0000000000
     28949      9623  TIP3      H1            -13.1736903985       15.9098142534       36.7753053365  SOLV      9612            0.0000000000
     28950      9623  TIP3      H2            -14.3708803985       16.4272442534       36.0066153365  SOLV      9612            0.0000000000
     28951      9624  TIP3      OH2           -20.5382703985       10.3883242534       36.1142753365  SOLV      9613            0.0000000000
     28952      9624  TIP3      H1            -19.6243503985       10.4672142534       36.3876653365  SOLV      9613            0.0000000000
     28953      9624  TIP3      H2            -20.5309603985        9.7012842534       35.4478353365  SOLV      9613            0.0000000000
     28954      9625  TIP3      OH2            -4.1558203985        8.2848042534       39.0509553365  SOLV      9614            0.0000000000
     28955      9625  TIP3      H1             -3.3056803985        8.7058942534       39.1781153365  SOLV      9614            0.0000000000
     28956      9625  TIP3      H2             -4.1503103985        7.5448142534       39.6580953365  SOLV      9614            0.0000000000
     28957      9626  TIP3      OH2            -3.4929503985        6.2393942534       37.2656553365  SOLV      9615            0.0000000000
     28958      9626  TIP3      H1             -4.0148403985        6.5958042534       36.5467453365  SOLV      9615            0.0000000000
     28959      9626  TIP3      H2             -3.5260303985        6.9141742534       37.9437453365  SOLV      9615            0.0000000000
     28960      9627  TIP3      OH2            -5.1440503985        3.4789542534       35.8163653365  SOLV      9616            0.0000000000
     28961      9627  TIP3      H1             -5.0476103985        4.1456542534       35.1363353365  SOLV      9616            0.0000000000
     28962      9627  TIP3      H2             -5.2840903985        2.6635842534       35.3349153365  SOLV      9616            0.0000000000
     28963      9628  TIP3      OH2            -5.8966703985        0.8869342534       34.9339153365  SOLV      9617            0.0000000000
     28964      9628  TIP3      H1             -5.2860903985        0.5156142534       35.5707353365  SOLV      9617            0.0000000000
     28965      9628  TIP3      H2             -6.7335203985        0.4656242534       35.1299153365  SOLV      9617            0.0000000000
     28966      9629  TIP3      OH2            -6.2641003985        2.4417742534       39.8999053365  SOLV      9618            0.0000000000
     28967      9629  TIP3      H1             -5.9843903985        1.5348142534       40.0240753365  SOLV      9618            0.0000000000
     28968      9629  TIP3      H2             -5.5049303985        2.8759242534       39.5108253365  SOLV      9618            0.0000000000
     28969      9630  TIP3      OH2            -5.6506203985       -0.2952957466       39.9481053365  SOLV      9619            0.0000000000
     28970      9630  TIP3      H1             -5.4681203985       -0.7441457466       40.7736053365  SOLV      9619            0.0000000000
     28971      9630  TIP3      H2             -6.2503303985       -0.8798557466       39.4845653365  SOLV      9619            0.0000000000
     28972      9631  TIP3      OH2            -3.7840003985       -0.2274857466       36.4761353365  SOLV      9620            0.0000000000
     28973      9631  TIP3      H1             -3.3717403985       -0.9489157466       36.0009353365  SOLV      9620            0.0000000000
     28974      9631  TIP3      H2             -3.1023503985        0.4419742534       36.5345653365  SOLV      9620            0.0000000000
     28975      9632  TIP3      OH2            -7.5736503985       -1.9952857466       38.9332353365  SOLV      9621            0.0000000000
     28976      9632  TIP3      H1             -8.2765403985       -1.3803657466       38.7233753365  SOLV      9621            0.0000000000
     28977      9632  TIP3      H2             -8.0185103985       -2.8326157466       39.0643253365  SOLV      9621            0.0000000000
     28978      9633  TIP3      OH2           -11.4613703985       14.9777642534       36.8769953365  SOLV      9622            0.0000000000
     28979      9633  TIP3      H1            -10.5953503985       15.3445042534       36.6988153365  SOLV      9622            0.0000000000
     28980      9633  TIP3      H2            -11.7080903985       14.5385642534       36.0630753365  SOLV      9622            0.0000000000
     28981      9634  TIP3      OH2            -4.7524103985       14.5407942534       39.5561053365  SOLV      9623            0.0000000000
     28982      9634  TIP3      H1             -4.9467003985       13.7930042534       38.9910653365  SOLV      9623            0.0000000000
     28983      9634  TIP3      H2             -4.7914003985       15.2988042534       38.9728953365  SOLV      9623            0.0000000000
     28984      9635  TIP3      OH2           -18.5076003985       14.6883542534       35.5045853365  SOLV      9624            0.0000000000
     28985      9635  TIP3      H1            -18.7751403985       14.9746442534       36.3778953365  SOLV      9624            0.0000000000
     28986      9635  TIP3      H2            -17.7363403985       14.1422742534       35.6568353365  SOLV      9624            0.0000000000
     28987      9636  TIP3      OH2            -2.2937603985        4.1579042534       40.6766053365  SOLV      9625            0.0000000000
     28988      9636  TIP3      H1             -2.7414203985        5.0037742534       40.6582553365  SOLV      9625            0.0000000000
     28989      9636  TIP3      H2             -2.8546403985        3.5783242534       40.1611153365  SOLV      9625            0.0000000000
     28990      9637  TIP3      OH2            -1.6028003985        9.5900642534       39.0924153365  SOLV      9626            0.0000000000
     28991      9637  TIP3      H1             -1.8747103985        9.8191642534       38.2037053365  SOLV      9626            0.0000000000
     28992      9637  TIP3      H2             -1.5572303985       10.4279442534       39.5529453365  SOLV      9626            0.0000000000
     28993      9638  TIP3      OH2             7.6464196015        4.8799042534       36.2275353365  SOLV      9627            0.0000000000
     28994      9638  TIP3      H1              8.3474096015        4.9025942534       36.8789353365  SOLV      9627            0.0000000000
     28995      9638  TIP3      H2              7.9487096015        4.2518742534       35.5714653365  SOLV      9627            0.0000000000
     28996      9639  TIP3      OH2            13.5680596015       -2.4558657466       37.6387153365  SOLV      9628            0.0000000000
     28997      9639  TIP3      H1             12.6681296015       -2.3169657466       37.9337753365  SOLV      9628            0.0000000000
     28998      9639  TIP3      H2             13.8198996015       -1.6244057466       37.2368853365  SOLV      9628            0.0000000000
     28999      9640  TIP3      OH2             1.6339096015        6.3318542534       39.6124053365  SOLV      9629            0.0000000000
     29000      9640  TIP3      H1              1.3420396015        7.1000242534       39.1215353365  SOLV      9629            0.0000000000
     29001      9640  TIP3      H2              0.9594296015        5.6724742534       39.4495453365  SOLV      9629            0.0000000000
     29002      9641  TIP3      OH2            11.3465296015        6.8269242534       35.4555353365  SOLV      9630            0.0000000000
     29003      9641  TIP3      H1             11.3886096015        6.6043142534       34.5255353365  SOLV      9630            0.0000000000
     29004      9641  TIP3      H2             12.1957396015        7.2256342534       35.6455253365  SOLV      9630            0.0000000000
     29005      9642  TIP3      OH2             6.9192796015        0.7027442534       36.1258653365  SOLV      9631            0.0000000000
     29006      9642  TIP3      H1              6.6657596015        0.7219042534       37.0486753365  SOLV      9631            0.0000000000
     29007      9642  TIP3      H2              6.6624896015       -0.1687157466       35.8244853365  SOLV      9631            0.0000000000
     29008      9643  TIP3      OH2             3.8015696015        1.1483942534       35.2269053365  SOLV      9632            0.0000000000
     29009      9643  TIP3      H1              3.3706396015        0.7034042534       35.9566453365  SOLV      9632            0.0000000000
     29010      9643  TIP3      H2              3.0834396015        1.5200242534       34.7146553365  SOLV      9632            0.0000000000
     29011      9644  TIP3      OH2            -1.6818803985        1.6365442534       37.7028153365  SOLV      9633            0.0000000000
     29012      9644  TIP3      H1             -1.2077103985        2.2275342534       37.1179053365  SOLV      9633            0.0000000000
     29013      9644  TIP3      H2             -2.3992403985        2.1668342534       38.0498253365  SOLV      9633            0.0000000000
     29014      9645  TIP3      OH2             3.7457396015        2.7314642534       39.0427353365  SOLV      9634            0.0000000000
     29015      9645  TIP3      H1              4.6772896015        2.8604642534       39.2210453365  SOLV      9634            0.0000000000
     29016      9645  TIP3      H2              3.5307696015        3.4008942534       38.3932053365  SOLV      9634            0.0000000000
     29017      9646  TIP3      OH2             2.4197596015        3.9256842534       36.6093453365  SOLV      9635            0.0000000000
     29018      9646  TIP3      H1              1.8772696015        3.5460642534       35.9181053365  SOLV      9635            0.0000000000
     29019      9646  TIP3      H2              3.2532496015        4.1201542534       36.1807553365  SOLV      9635            0.0000000000
     29020      9647  TIP3      OH2             5.7550396015        8.4912542534       38.5451553365  SOLV      9636            0.0000000000
     29021      9647  TIP3      H1              5.0101396015        7.9837842534       38.2229453365  SOLV      9636            0.0000000000
     29022      9647  TIP3      H2              5.6207596015        8.5400542534       39.4916353365  SOLV      9636            0.0000000000
     29023      9648  TIP3      OH2             9.6527196015        1.3052442534       36.7444153365  SOLV      9637            0.0000000000
     29024      9648  TIP3      H1              8.7141396015        1.4168042534       36.5932953365  SOLV      9637            0.0000000000
     29025      9648  TIP3      H2              9.9499296015        2.1619342534       37.0509853365  SOLV      9637            0.0000000000
     29026      9649  TIP3      OH2            -0.9904203985        6.1664842534       36.3063353365  SOLV      9638            0.0000000000
     29027      9649  TIP3      H1             -0.3744303985        6.7932042534       36.6858153365  SOLV      9638            0.0000000000
     29028      9649  TIP3      H2             -1.8521603985        6.4824642534       36.5779853365  SOLV      9638            0.0000000000
     29029      9650  TIP3      OH2             5.0344496015       11.2561542534       34.8320953365  SOLV      9639            0.0000000000
     29030      9650  TIP3      H1              5.2734296015       10.5079642534       34.2849853365  SOLV      9639            0.0000000000
     29031      9650  TIP3      H2              4.7655796015       10.8683242534       35.6648753365  SOLV      9639            0.0000000000
     29032      9651  TIP3      OH2             3.9715096015       10.8265342534       37.2883553365  SOLV      9640            0.0000000000
     29033      9651  TIP3      H1              4.1183096015       10.3065142534       38.0784453365  SOLV      9640            0.0000000000
     29034      9651  TIP3      H2              3.9686796015       11.7332942534       37.5949453365  SOLV      9640            0.0000000000
     29035      9652  TIP3      OH2             0.4246196015        8.0788642534       37.7988953365  SOLV      9641            0.0000000000
     29036      9652  TIP3      H1             -0.2614503985        8.4311142534       38.3658653365  SOLV      9641            0.0000000000
     29037      9652  TIP3      H2              0.9474096015        8.8418242534       37.5523253365  SOLV      9641            0.0000000000
     29038      9653  TIP3      OH2             9.0406196015        0.3934142534       39.1750253365  SOLV      9642            0.0000000000
     29039      9653  TIP3      H1              9.2604496015        0.8649542534       38.3715653365  SOLV      9642            0.0000000000
     29040      9653  TIP3      H2              9.5990196015        0.7876742534       39.8450853365  SOLV      9642            0.0000000000
     29041      9654  TIP3      OH2             6.2406096015        2.1212942534       40.0098653365  SOLV      9643            0.0000000000
     29042      9654  TIP3      H1              7.0528696015        2.6256142534       40.0560353365  SOLV      9643            0.0000000000
     29043      9654  TIP3      H2              5.9959096015        1.9762642534       40.9238253365  SOLV      9643            0.0000000000
     29044      9655  TIP3      OH2             2.7819796015        0.2655342534       37.6352253365  SOLV      9644            0.0000000000
     29045      9655  TIP3      H1              2.6984596015        1.1538442534       37.9818653365  SOLV      9644            0.0000000000
     29046      9655  TIP3      H2              3.6720096015        0.0002042534       37.8669053365  SOLV      9644            0.0000000000
     29047      9656  TIP3      OH2             1.0405096015       10.6927542534       36.6956753365  SOLV      9645            0.0000000000
     29048      9656  TIP3      H1              1.6326596015       11.3922342534       36.9719153365  SOLV      9645            0.0000000000
     29049      9656  TIP3      H2              1.4998096015       10.2597042534       35.9761353365  SOLV      9645            0.0000000000
     29050      9657  TIP3      OH2            -0.6435703985        3.3570542534       35.8116153365  SOLV      9646            0.0000000000
     29051      9657  TIP3      H1             -0.6883103985        4.2963642534       35.9903153365  SOLV      9646            0.0000000000
     29052      9657  TIP3      H2             -1.5312503985        3.1215442534       35.5418253365  SOLV      9646            0.0000000000
     29053      9658  TIP3      OH2            -0.9050403985       12.0794242534       40.6452953365  SOLV      9647            0.0000000000
     29054      9658  TIP3      H1             -1.7371803985       12.5516942534       40.6724353365  SOLV      9647            0.0000000000
     29055      9658  TIP3      H2             -0.3592103985       12.5891842534       40.0466053365  SOLV      9647            0.0000000000
     29056      9659  TIP3      OH2             7.0726296015       13.1192942534       34.9706953365  SOLV      9648            0.0000000000
     29057      9659  TIP3      H1              6.4287296015       12.4881542534       35.2920653365  SOLV      9648            0.0000000000
     29058      9659  TIP3      H2              7.8344596015       12.5880942534       34.7390453365  SOLV      9648            0.0000000000
     29059      9660  TIP3      OH2             2.6316496015        8.8457742534       35.0619853365  SOLV      9649            0.0000000000
     29060      9660  TIP3      H1              2.6960596015        8.0517342534       35.5926253365  SOLV      9649            0.0000000000
     29061      9660  TIP3      H2              3.2845696015        8.7270542534       34.3721853365  SOLV      9649            0.0000000000
     29062      9661  TIP3      OH2             7.9839896015        9.8929442534       34.7977853365  SOLV      9650            0.0000000000
     29063      9661  TIP3      H1              7.7153996015       10.0731542534       35.6986753365  SOLV      9650            0.0000000000
     29064      9661  TIP3      H2              7.7775496015        8.9675642534       34.6663653365  SOLV      9650            0.0000000000
     29065      9662  TIP3      OH2             3.7810296015        6.8183942534       37.3677853365  SOLV      9651            0.0000000000
     29066      9662  TIP3      H1              3.3212296015        6.3342242534       38.0536353365  SOLV      9651            0.0000000000
     29067      9662  TIP3      H2              4.0358996015        6.1499342534       36.7318353365  SOLV      9651            0.0000000000
     29068      9663  TIP3      OH2             4.8520696015        5.0615742534       35.6301053365  SOLV      9652            0.0000000000
     29069      9663  TIP3      H1              4.6715696015        4.9066942534       34.7029353365  SOLV      9652            0.0000000000
     29070      9663  TIP3      H2              5.8021196015        5.1694442534       35.6748953365  SOLV      9652            0.0000000000
     29071      9664  TIP3      OH2            -1.6822703985       10.3883242534       36.1142753365  SOLV      9653            0.0000000000
     29072      9664  TIP3      H1             -0.7683503985       10.4672142534       36.3876653365  SOLV      9653            0.0000000000
     29073      9664  TIP3      H2             -1.6749603985        9.7012842534       35.4478353365  SOLV      9653            0.0000000000
     29074      9665  TIP3      OH2            13.7119496015        3.4789542534       35.8163653365  SOLV      9654            0.0000000000
     29075      9665  TIP3      H1             13.8083896015        4.1456542534       35.1363353365  SOLV      9654            0.0000000000
     29076      9665  TIP3      H2             13.5719096015        2.6635842534       35.3349153365  SOLV      9654            0.0000000000
     29077      9666  TIP3      OH2            12.9593296015        0.8869342534       34.9339153365  SOLV      9655            0.0000000000
     29078      9666  TIP3      H1             13.5699096015        0.5156142534       35.5707353365  SOLV      9655            0.0000000000
     29079      9666  TIP3      H2             12.1224796015        0.4656242534       35.1299153365  SOLV      9655            0.0000000000
     29080      9667  TIP3      OH2            15.0719996015       -0.2274857466       36.4761353365  SOLV      9656            0.0000000000
     29081      9667  TIP3      H1             15.4842596015       -0.9489157466       36.0009353365  SOLV      9656            0.0000000000
     29082      9667  TIP3      H2             15.7536496015        0.4419742534       36.5345653365  SOLV      9656            0.0000000000
     29083      9668  TIP3      OH2            -2.6469303985       -0.2227157466       39.6032053365  SOLV      9657            0.0000000000
     29084      9668  TIP3      H1             -3.5720903985       -0.0140557466       39.4737553365  SOLV      9657            0.0000000000
     29085      9668  TIP3      H2             -2.1929403985        0.2613642534       38.9134353365  SOLV      9657            0.0000000000
     29086      9669  TIP3      OH2            -1.3706703985       -2.1799457466       37.5818653365  SOLV      9658            0.0000000000
     29087      9669  TIP3      H1             -0.9316003985       -1.5688957466       36.9902153365  SOLV      9658            0.0000000000
     29088      9669  TIP3      H2             -2.0044303985       -1.6415357466       38.0558653365  SOLV      9658            0.0000000000
     29089      9670  TIP3      OH2            11.2823496015       -1.9952857466       38.9332353365  SOLV      9659            0.0000000000
     29090      9670  TIP3      H1             10.5794596015       -1.3803657466       38.7233753365  SOLV      9659            0.0000000000
     29091      9670  TIP3      H2             10.8374896015       -2.8326157466       39.0643253365  SOLV      9659            0.0000000000
     29092      9671  TIP3      OH2            -1.4697203985       13.7682742534       38.4793753365  SOLV      9660            0.0000000000
     29093      9671  TIP3      H1             -2.1547303985       13.7301642534       37.8118853365  SOLV      9660            0.0000000000
     29094      9671  TIP3      H2             -1.4660003985       14.6810342534       38.7675853365  SOLV      9660            0.0000000000
     29095      9672  TIP3      OH2             0.4902396015       -0.2637957466       36.0242753365  SOLV      9661            0.0000000000
     29096      9672  TIP3      H1              0.9815796015       -0.8935557466       35.4968253365  SOLV      9661            0.0000000000
     29097      9672  TIP3      H2              1.1138696015        0.0321442534       36.6873953365  SOLV      9661            0.0000000000
     29098      9673  TIP3      OH2             5.5162496015        0.0293542534       38.4813253365  SOLV      9662            0.0000000000
     29099      9673  TIP3      H1              5.6943796015       -0.6173257466       39.1641853365  SOLV      9662            0.0000000000
     29100      9673  TIP3      H2              5.4628696015        0.8631242534       38.9484353365  SOLV      9662            0.0000000000
     29101      9674  TIP3      OH2             0.3483996015       14.6883542534       35.5045853365  SOLV      9663            0.0000000000
     29102      9674  TIP3      H1              0.0808596015       14.9746442534       36.3778953365  SOLV      9663            0.0000000000
     29103      9674  TIP3      H2              1.1196596015       14.1422742534       35.6568353365  SOLV      9663            0.0000000000
     29104      9675  TIP3      OH2            -5.2879403985       16.4001342534       37.6387153365  SOLV      9664            0.0000000000
     29105      9675  TIP3      H1             -6.1878703985       16.5390342534       37.9337753365  SOLV      9664            0.0000000000
     29106      9675  TIP3      H2             -5.0361003985       17.2315942534       37.2368853365  SOLV      9664            0.0000000000
     29107      9676  TIP3      OH2            -7.5094703985       25.6829242534       35.4555353365  SOLV      9665            0.0000000000
     29108      9676  TIP3      H1             -7.4673903985       25.4603142534       34.5255353365  SOLV      9665            0.0000000000
     29109      9676  TIP3      H2             -6.6602603985       26.0816342534       35.6455253365  SOLV      9665            0.0000000000
     29110      9677  TIP3      OH2           -11.9367203985       19.5587442534       36.1258653365  SOLV      9666            0.0000000000
     29111      9677  TIP3      H1            -12.1902403985       19.5779042534       37.0486753365  SOLV      9666            0.0000000000
     29112      9677  TIP3      H2            -12.1935103985       18.6872842534       35.8244853365  SOLV      9666            0.0000000000
     29113      9678  TIP3      OH2            -9.2032803985       20.1612442534       36.7444153365  SOLV      9667            0.0000000000
     29114      9678  TIP3      H1            -10.1418603985       20.2728042534       36.5932953365  SOLV      9667            0.0000000000
     29115      9678  TIP3      H2             -8.9060703985       21.0179342534       37.0509853365  SOLV      9667            0.0000000000
     29116      9679  TIP3      OH2            -3.6000603985       22.2379242534       38.0998253365  SOLV      9668            0.0000000000
     29117      9679  TIP3      H1             -4.1544303985       21.8417242534       37.4275753365  SOLV      9668            0.0000000000
     29118      9679  TIP3      H2             -3.4997003985       23.1484442534       37.8221553365  SOLV      9668            0.0000000000
     29119      9680  TIP3      OH2            -4.6141003985       26.2719942534       35.0759153365  SOLV      9669            0.0000000000
     29120      9680  TIP3      H1             -4.8876203985       25.8475442534       34.2627453365  SOLV      9669            0.0000000000
     29121      9680  TIP3      H2             -4.5746903985       27.2034442534       34.8589553365  SOLV      9669            0.0000000000
     29122      9681  TIP3      OH2            -5.1440503985       22.3349542534       35.8163653365  SOLV      9670            0.0000000000
     29123      9681  TIP3      H1             -5.0476103985       23.0016542534       35.1363353365  SOLV      9670            0.0000000000
     29124      9681  TIP3      H2             -5.2840903985       21.5195842534       35.3349153365  SOLV      9670            0.0000000000
     29125      9682  TIP3      OH2            -5.8966703985       19.7429342534       34.9339153365  SOLV      9671            0.0000000000
     29126      9682  TIP3      H1             -5.2860903985       19.3716142534       35.5707353365  SOLV      9671            0.0000000000
     29127      9682  TIP3      H2             -6.7335203985       19.3216242534       35.1299153365  SOLV      9671            0.0000000000
     29128      9683  TIP3      OH2            -6.2641003985       21.2977742534       39.8999053365  SOLV      9672            0.0000000000
     29129      9683  TIP3      H1             -5.9843903985       20.3908142534       40.0240753365  SOLV      9672            0.0000000000
     29130      9683  TIP3      H2             -5.5049303985       21.7319242534       39.5108253365  SOLV      9672            0.0000000000
     29131      9684  TIP3      OH2            -5.6506203985       18.5607042534       39.9481053365  SOLV      9673            0.0000000000
     29132      9684  TIP3      H1             -5.4681203985       18.1118542534       40.7736053365  SOLV      9673            0.0000000000
     29133      9684  TIP3      H2             -6.2503303985       17.9761442534       39.4845653365  SOLV      9673            0.0000000000
     29134      9685  TIP3      OH2            -3.7840003985       18.6285142534       36.4761353365  SOLV      9674            0.0000000000
     29135      9685  TIP3      H1             -3.3717403985       17.9070842534       36.0009353365  SOLV      9674            0.0000000000
     29136      9685  TIP3      H2             -3.1023503985       19.2979742534       36.5345653365  SOLV      9674            0.0000000000
     29137      9686  TIP3      OH2            -7.5736503985       16.8607142534       38.9332353365  SOLV      9675            0.0000000000
     29138      9686  TIP3      H1             -8.2765403985       17.4756342534       38.7233753365  SOLV      9675            0.0000000000
     29139      9686  TIP3      H2             -8.0185103985       16.0233842534       39.0643253365  SOLV      9675            0.0000000000
     29140      9687  TIP3      OH2            -1.6818803985       20.4925442534       37.7028153365  SOLV      9676            0.0000000000
     29141      9687  TIP3      H1             -1.2077103985       21.0835342534       37.1179053365  SOLV      9676            0.0000000000
     29142      9687  TIP3      H2             -2.3992403985       21.0228342534       38.0498253365  SOLV      9676            0.0000000000
     29143      9688  TIP3      OH2            -0.6435703985       22.2130542534       35.8116153365  SOLV      9677            0.0000000000
     29144      9688  TIP3      H1             -0.6883103985       23.1523642534       35.9903153365  SOLV      9677            0.0000000000
     29145      9688  TIP3      H2             -1.5312503985       21.9775442534       35.5418253365  SOLV      9677            0.0000000000
     29146      9689  TIP3      OH2            -2.6469303985       18.6332842534       39.6032053365  SOLV      9678            0.0000000000
     29147      9689  TIP3      H1             -3.5720903985       18.8419442534       39.4737553365  SOLV      9678            0.0000000000
     29148      9689  TIP3      H2             -2.1929403985       19.1173642534       38.9134353365  SOLV      9678            0.0000000000
     29149      9690  TIP3      OH2            -1.3706703985       16.6760542534       37.5818653365  SOLV      9679            0.0000000000
     29150      9690  TIP3      H1             -0.9316003985       17.2871042534       36.9902153365  SOLV      9679            0.0000000000
     29151      9690  TIP3      H2             -2.0044303985       17.2144642534       38.0558653365  SOLV      9679            0.0000000000
     29152      9691  TIP3      OH2             0.4902396015       18.5922042534       36.0242753365  SOLV      9680            0.0000000000
     29153      9691  TIP3      H1              0.9815796015       17.9624442534       35.4968253365  SOLV      9680            0.0000000000
     29154      9691  TIP3      H2              1.1138696015       18.8881442534       36.6873953365  SOLV      9680            0.0000000000
     29155      9692  LIT       LIT           -17.6368932096       21.7272208684      -16.7416450704  IONS      1               1.0000000000
     29156      9693  LIT       LIT           -21.9962991648       -8.4162093487      -22.7885230241  IONS      2               1.0000000000
     29157      9694  LIT       LIT           -11.9352847202      -35.7417492632      -15.3439662237  IONS      3               1.0000000000
     29158      9695  LIT       LIT             9.2984692758      -24.8213601910       16.5889126330  IONS      4               1.0000000000
     29159      9696  LIT       LIT            25.0369929058       31.7911971703       -0.1110012562  IONS      5               1.0000000000
     29160      9697  LIT       LIT           -27.6316589031       17.8419121936      -24.8516197125  IONS      6               1.0000000000
     29161      9698  LIT       LIT            -3.2042497840      -25.5419822977      -34.5869100284  IONS      7               1.0000000000
     29162      9699  LIT       LIT            -4.1519452928      -40.1942281040      -11.2103825005  IONS      8               1.0000000000
     29163      9700  LIT       LIT            -1.1202486056      -36.0089325926       12.5761534272  IONS      9               1.0000000000
     29164      9701  LIT       LIT            35.1800121633       -9.5671351095        6.9443657297  IONS      10              1.0000000000
     29165      9702  LIT       LIT           -31.5577236957       11.9670133636      -21.7815680422  IONS      11              1.0000000000
     29166      9703  LIT       LIT             9.1223500870       29.7073994357       17.0285185152  IONS      12              1.0000000000
     29167      9704  LIT       LIT            25.3360503920       23.6362847779       -2.8712805298  IONS      13              1.0000000000
     29168      9705  LIT       LIT           -27.4505203643       -3.5256686585       31.9525202027  IONS      14              1.0000000000
     29169      9706  LIT       LIT            10.4794725888       -1.8296735728       -9.1630764056  IONS      15              1.0000000000
     29170      9707  LIT       LIT           -28.2816051982       19.7908609759       21.9740818206  IONS      16              1.0000000000
     29171      9708  LIT       LIT            -1.4505104814       30.5166110477       32.5835127920  IONS      17              1.0000000000
     29172      9709  LIT       LIT            14.3657390586      -32.2123990843      -22.2283680782  IONS      18              1.0000000000
     29173      9710  LIT       LIT             0.6431817919        3.3316334310       26.1386677172  IONS      19              1.0000000000
     29174      9711  LIT       LIT            21.7645701599      -11.8625805139      -35.9637439129  IONS      20              1.0000000000
     29175      9712  LIT       LIT           -33.0309070158       14.5981445557        3.0984907237  IONS      21              1.0000000000
     29176      9713  LIT       LIT            -9.9259019275       -1.2825221866      -29.5846647953  IONS      22              1.0000000000
     29177      9714  LIT       LIT             2.5047698898      -16.8613196977       10.2053071431  IONS      23              1.0000000000
     29178      9715  LIT       LIT           -18.3528550743        6.5851939277        2.8809916576  IONS      24              1.0000000000
     29179      9716  LIT       LIT            23.1174904019        4.2426743330       19.3075457999  IONS      25              1.0000000000
     29180      9717  LIT       LIT           -16.1542546815      -17.2235212243       -4.2339149754  IONS      26              1.0000000000
     29181      9718  LIT       LIT            20.3918766229      -25.8217181787       26.3584703202  IONS      27              1.0000000000
     29182      9719  LIT       LIT            12.3866688841      -21.0304946959        1.3472128794  IONS      28              1.0000000000
     29183      9720  LIT       LIT            -0.2886381368      -10.6869853922        2.1814311361  IONS      29              1.0000000000
     29184      9721  LIT       LIT             1.6759105654      -23.7720585708      -22.7282678164  IONS      30              1.0000000000
     29185      9722  LIT       LIT           -29.8231636039        7.4268068126       16.8739393481  IONS      31              1.0000000000
     29186      9723  CLA       CLA             0.1220020259       27.1983762052       34.4446031730  IONS      32             -1.0000000000
     29187      9724  CLA       CLA           -28.3416818451       -8.8547476202       29.0933481173  IONS      33             -1.0000000000
     29188      9725  CLA       CLA           -18.5712509694      -20.7832210196      -22.0367781298  IONS      34             -1.0000000000
     29189      9726  CLA       CLA           -23.1383947501       25.4703699416      -22.7085754806  IONS      35             -1.0000000000
     29190      9727  CLA       CLA            17.9440305037       29.6143186610        1.9855663871  IONS      36             -1.0000000000
     29191      9728  CLA       CLA           -16.2478658870      -13.6208098391      -18.7837506998  IONS      37             -1.0000000000
     29192      9729  CLA       CLA            22.8120895389      -15.6164473982       23.9027315083  IONS      38             -1.0000000000
     29193      9730  CLA       CLA           -31.0484374244       20.3801964848       -1.8835126526  IONS      39             -1.0000000000
     29194      9731  CLA       CLA            32.9324125163       -0.8991522048      -12.5899927331  IONS      40             -1.0000000000
     29195      9732  CLA       CLA           -21.2839929405       14.8492451598      -21.9654635724  IONS      41             -1.0000000000
     29196      9733  CLA       CLA           -29.0018547279       -2.4848812739       14.0277252288  IONS      42             -1.0000000000
     29197      9734  CLA       CLA           -28.6924486904       24.4207091001       21.4440881070  IONS      43             -1.0000000000
     29198      9735  CLA       CLA            31.2324271011       26.1216415118       -3.4683097408  IONS      44             -1.0000000000
     29199      9736  CLA       CLA             5.0785997449       21.5562351367       -6.3981129639  IONS      45             -1.0000000000
     29200      9737  CLA       CLA           -27.8710154782       -6.2846206323        4.2333864916  IONS      46             -1.0000000000
     29201      9738  CLA       CLA           -25.2900066267        7.5567724161      -14.8500126395  IONS      47             -1.0000000000
     29202      9739  CLA       CLA            -5.7476152444       -8.7184674380        6.8308203774  IONS      48             -1.0000000000
     29203      9740  CLA       CLA            -9.4382479279      -39.1149008756      -14.1825919153  IONS      49             -1.0000000000
     29204      9741  CLA       CLA           -34.8587120910        8.3608491702      -18.4518978400  IONS      50             -1.0000000000
     29205      9742  CLA       CLA             0.7931688643       28.4820284684       21.6091578397  IONS      51             -1.0000000000
     29206      9743  CLA       CLA           -13.2654570221       18.9171282263      -13.4470448127  IONS      52             -1.0000000000
     29207      9744  CLA       CLA            -7.9267544764        9.1981998818      -22.2131926203  IONS      53             -1.0000000000
     29208      9745  CLA       CLA           -15.3272257238       30.1143211916        0.1786996661  IONS      54             -1.0000000000
     29209      9746  CLA       CLA            20.8283564001        7.1554259405       20.4510771558  IONS      55             -1.0000000000
     29210      9747  CLA       CLA            19.5532210318       -5.6103930192      -14.3695235047  IONS      56             -1.0000000000
     29211      9748  CLA       CLA           -22.3603006819        6.5164411107       17.2453227306  IONS      57             -1.0000000000
     29212      9749  CLA       CLA             8.3455040612      -20.1543232349      -32.2417826626  IONS      58             -1.0000000000
