PSF EXT CMAP XPLOR

         3 !NTITLE
* GENERATED BY CHARMM-GUI (HTTP://WWW.CHARMM-GUI.ORG) V3.7 ON JUN, 17. 2026. JOB
* READ PDB, MANIPULATE STRUCTURE IF NEEDED, AND GENERATE TOPOLOGY FILE          
*  DATE:     6/17/26     23:40:29      CREATED BY USER: charmm-gui              

       114 !NATOM
         1 PROA     1        ASP      N        NH3     -0.300000       14.0070           0
         2 PROA     1        ASP      HT1      HC       0.330000       1.00800           0
         3 PROA     1        ASP      HT2      HC       0.330000       1.00800           0
         4 PROA     1        ASP      HT3      HC       0.330000       1.00800           0
         5 PROA     1        ASP      CA       CT1      0.210000       12.0110           0
         6 PROA     1        ASP      HA       HB1      0.100000       1.00800           0
         7 PROA     1        ASP      CB       CT2A    -0.280000       12.0110           0
         8 PROA     1        ASP      HB1      HA2      0.900000E-01   1.00800           0
         9 PROA     1        ASP      HB2      HA2      0.900000E-01   1.00800           0
        10 PROA     1        ASP      CG       CC       0.620000       12.0110           0
        11 PROA     1        ASP      OD1      OC      -0.760000       15.9994           0
        12 PROA     1        ASP      OD2      OC      -0.760000       15.9994           0
        13 PROA     1        ASP      C        C        0.510000       12.0110           0
        14 PROA     1        ASP      O        O       -0.510000       15.9994           0
        15 PROA     2        GLY      N        NH1     -0.470000       14.0070           0
        16 PROA     2        GLY      HN       H        0.310000       1.00800           0
        17 PROA     2        GLY      CA       CT2     -0.200000E-01   12.0110           0
        18 PROA     2        GLY      HA1      HB2      0.900000E-01   1.00800           0
        19 PROA     2        GLY      HA2      HB2      0.900000E-01   1.00800           0
        20 PROA     2        GLY      C        C        0.510000       12.0110           0
        21 PROA     2        GLY      O        O       -0.510000       15.9994           0
        22 PROA     3        ASP      N        NH1     -0.470000       14.0070           0
        23 PROA     3        ASP      HN       H        0.310000       1.00800           0
        24 PROA     3        ASP      CA       CT1      0.700000E-01   12.0110           0
        25 PROA     3        ASP      HA       HB1      0.900000E-01   1.00800           0
        26 PROA     3        ASP      CB       CT2A    -0.280000       12.0110           0
        27 PROA     3        ASP      HB1      HA2      0.900000E-01   1.00800           0
        28 PROA     3        ASP      HB2      HA2      0.900000E-01   1.00800           0
        29 PROA     3        ASP      CG       CC       0.620000       12.0110           0
        30 PROA     3        ASP      OD1      OC      -0.760000       15.9994           0
        31 PROA     3        ASP      OD2      OC      -0.760000       15.9994           0
        32 PROA     3        ASP      C        C        0.510000       12.0110           0
        33 PROA     3        ASP      O        O       -0.510000       15.9994           0
        34 PROA     4        GLY      N        NH1     -0.470000       14.0070           0
        35 PROA     4        GLY      HN       H        0.310000       1.00800           0
        36 PROA     4        GLY      CA       CT2     -0.200000E-01   12.0110           0
        37 PROA     4        GLY      HA1      HB2      0.900000E-01   1.00800           0
        38 PROA     4        GLY      HA2      HB2      0.900000E-01   1.00800           0
        39 PROA     4        GLY      C        C        0.510000       12.0110           0
        40 PROA     4        GLY      O        O       -0.510000       15.9994           0
        41 PROA     5        PRO      N        N       -0.290000       14.0070           0
        42 PROA     5        PRO      CD       CP3       0.00000       12.0110           0
        43 PROA     5        PRO      HD1      HA2      0.900000E-01   1.00800           0
        44 PROA     5        PRO      HD2      HA2      0.900000E-01   1.00800           0
        45 PROA     5        PRO      CA       CP1      0.200000E-01   12.0110           0
        46 PROA     5        PRO      HA       HB1      0.900000E-01   1.00800           0
        47 PROA     5        PRO      CB       CP2     -0.180000       12.0110           0
        48 PROA     5        PRO      HB1      HA2      0.900000E-01   1.00800           0
        49 PROA     5        PRO      HB2      HA2      0.900000E-01   1.00800           0
        50 PROA     5        PRO      CG       CP2     -0.180000       12.0110           0
        51 PROA     5        PRO      HG1      HA2      0.900000E-01   1.00800           0
        52 PROA     5        PRO      HG2      HA2      0.900000E-01   1.00800           0
        53 PROA     5        PRO      C        C        0.510000       12.0110           0
        54 PROA     5        PRO      O        O       -0.510000       15.9994           0
        55 PROA     6        GLY      N        NH1     -0.470000       14.0070           0
        56 PROA     6        GLY      HN       H        0.310000       1.00800           0
        57 PROA     6        GLY      CA       CT2     -0.200000E-01   12.0110           0
        58 PROA     6        GLY      HA1      HB2      0.900000E-01   1.00800           0
        59 PROA     6        GLY      HA2      HB2      0.900000E-01   1.00800           0
        60 PROA     6        GLY      C        C        0.510000       12.0110           0
        61 PROA     6        GLY      O        O       -0.510000       15.9994           0
        62 PROA     7        ASP      N        NH1     -0.470000       14.0070           0
        63 PROA     7        ASP      HN       H        0.310000       1.00800           0
        64 PROA     7        ASP      CA       CT1      0.700000E-01   12.0110           0
        65 PROA     7        ASP      HA       HB1      0.900000E-01   1.00800           0
        66 PROA     7        ASP      CB       CT2A    -0.280000       12.0110           0
        67 PROA     7        ASP      HB1      HA2      0.900000E-01   1.00800           0
        68 PROA     7        ASP      HB2      HA2      0.900000E-01   1.00800           0
        69 PROA     7        ASP      CG       CC       0.620000       12.0110           0
        70 PROA     7        ASP      OD1      OC      -0.760000       15.9994           0
        71 PROA     7        ASP      OD2      OC      -0.760000       15.9994           0
        72 PROA     7        ASP      C        C        0.510000       12.0110           0
        73 PROA     7        ASP      O        O       -0.510000       15.9994           0
        74 PROA     8        PRO      N        N       -0.290000       14.0070           0
        75 PROA     8        PRO      CD       CP3       0.00000       12.0110           0
        76 PROA     8        PRO      HD1      HA2      0.900000E-01   1.00800           0
        77 PROA     8        PRO      HD2      HA2      0.900000E-01   1.00800           0
        78 PROA     8        PRO      CA       CP1      0.200000E-01   12.0110           0
        79 PROA     8        PRO      HA       HB1      0.900000E-01   1.00800           0
        80 PROA     8        PRO      CB       CP2     -0.180000       12.0110           0
        81 PROA     8        PRO      HB1      HA2      0.900000E-01   1.00800           0
        82 PROA     8        PRO      HB2      HA2      0.900000E-01   1.00800           0
        83 PROA     8        PRO      CG       CP2     -0.180000       12.0110           0
        84 PROA     8        PRO      HG1      HA2      0.900000E-01   1.00800           0
        85 PROA     8        PRO      HG2      HA2      0.900000E-01   1.00800           0
        86 PROA     8        PRO      C        C        0.510000       12.0110           0
        87 PROA     8        PRO      O        O       -0.510000       15.9994           0
        88 PROA     9        GLY      N        NH1     -0.470000       14.0070           0
        89 PROA     9        GLY      HN       H        0.310000       1.00800           0
        90 PROA     9        GLY      CA       CT2     -0.200000E-01   12.0110           0
        91 PROA     9        GLY      HA1      HB2      0.900000E-01   1.00800           0
        92 PROA     9        GLY      HA2      HB2      0.900000E-01   1.00800           0
        93 PROA     9        GLY      C        C        0.510000       12.0110           0
        94 PROA     9        GLY      O        O       -0.510000       15.9994           0
        95 PROA     10       ASP      N        NH1     -0.470000       14.0070           0
        96 PROA     10       ASP      HN       H        0.310000       1.00800           0
        97 PROA     10       ASP      CA       CT1      0.700000E-01   12.0110           0
        98 PROA     10       ASP      HA       HB1      0.900000E-01   1.00800           0
        99 PROA     10       ASP      CB       CT2A    -0.280000       12.0110           0
       100 PROA     10       ASP      HB1      HA2      0.900000E-01   1.00800           0
       101 PROA     10       ASP      HB2      HA2      0.900000E-01   1.00800           0
       102 PROA     10       ASP      CG       CC       0.620000       12.0110           0
       103 PROA     10       ASP      OD1      OC      -0.760000       15.9994           0
       104 PROA     10       ASP      OD2      OC      -0.760000       15.9994           0
       105 PROA     10       ASP      C        C        0.510000       12.0110           0
       106 PROA     10       ASP      O        O       -0.510000       15.9994           0
       107 PROA     11       GLY      N        NH1     -0.470000       14.0070           0
       108 PROA     11       GLY      HN       H        0.310000       1.00800           0
       109 PROA     11       GLY      CA       CT2     -0.200000E-01   12.0110           0
       110 PROA     11       GLY      HA1      HB2      0.900000E-01   1.00800           0
       111 PROA     11       GLY      HA2      HB2      0.900000E-01   1.00800           0
       112 PROA     11       GLY      C        CC       0.340000       12.0110           0
       113 PROA     11       GLY      OT1      OC      -0.670000       15.9994           0
       114 PROA     11       GLY      OT2      OC      -0.670000       15.9994           0

       115 !NBOND: bonds
         2         1         3         1         4         1         7         5
        10         7        12        10         1         5        13         5
        13        15         5         6         7         8         7         9
        14        13        10        11        15        16        15        17
        20        17        20        22        17        18        17        19
        21        20        26        24        29        26        31        29
        22        23        22        24        32        24        32        34
        24        25        26        27        26        28        33        32
        29        30        34        35        34        36        39        36
        39        41        36        37        36        38        40        39
        53        45        53        55        41        45        45        47
        47        50        50        42        41        42        46        45
        51        50        52        50        43        42        44        42
        48        47        49        47        54        53        55        56
        55        57        60        57        60        62        57        58
        57        59        61        60        66        64        69        66
        71        69        62        63        62        64        72        64
        72        74        64        65        66        67        66        68
        73        72        69        70        86        78        86        88
        74        78        78        80        80        83        83        75
        74        75        79        78        84        83        85        83
        76        75        77        75        81        80        82        80
        87        86        88        89        88        90        93        90
        93        95        90        91        90        92        94        93
        99        97       102        99       104       102        95        96
        95        97       105        97       105       107        97        98
        99       100        99       101       106       105       102       103
       107       108       107       109       112       109       109       110
       109       111       112       114       112       113

       207 !NTHETA: angles
         2         1         3         2         1         4         2         1         5
         3         1         4         3         1         5         4         1         5
         1         5         6         1         5         7         1         5        13
         6         5         7         6         5        13         7         5        13
         5         7         8         5         7         9         5         7        10
         8         7         9         8         7        10         9         7        10
         7        10        11         7        10        12        11        10        12
         5        13        14         5        13        15        14        13        15
        13        15        16        13        15        17        16        15        17
        15        17        18        15        17        19        15        17        20
        18        17        19        18        17        20        19        17        20
        17        20        21        17        20        22        21        20        22
        20        22        23        20        22        24        23        22        24
        22        24        25        22        24        26        22        24        32
        25        24        26        25        24        32        26        24        32
        24        26        27        24        26        28        24        26        29
        27        26        28        27        26        29        28        26        29
        26        29        30        26        29        31        30        29        31
        24        32        33        24        32        34        33        32        34
        32        34        35        32        34        36        35        34        36
        34        36        37        34        36        38        34        36        39
        37        36        38        37        36        39        38        36        39
        36        39        40        36        39        41        40        39        41
        39        41        42        39        41        45        42        41        45
        41        42        43        41        42        44        41        42        50
        43        42        44        43        42        50        44        42        50
        41        45        46        41        45        47        41        45        53
        46        45        47        46        45        53        47        45        53
        45        47        48        45        47        49        45        47        50
        48        47        49        48        47        50        49        47        50
        42        50        47        42        50        51        42        50        52
        47        50        51        47        50        52        51        50        52
        45        53        54        45        53        55        54        53        55
        53        55        56        53        55        57        56        55        57
        55        57        58        55        57        59        55        57        60
        58        57        59        58        57        60        59        57        60
        57        60        61        57        60        62        61        60        62
        60        62        63        60        62        64        63        62        64
        62        64        65        62        64        66        62        64        72
        65        64        66        65        64        72        66        64        72
        64        66        67        64        66        68        64        66        69
        67        66        68        67        66        69        68        66        69
        66        69        70        66        69        71        70        69        71
        64        72        73        64        72        74        73        72        74
        72        74        75        72        74        78        75        74        78
        74        75        76        74        75        77        74        75        83
        76        75        77        76        75        83        77        75        83
        74        78        79        74        78        80        74        78        86
        79        78        80        79        78        86        80        78        86
        78        80        81        78        80        82        78        80        83
        81        80        82        81        80        83        82        80        83
        75        83        80        75        83        84        75        83        85
        80        83        84        80        83        85        84        83        85
        78        86        87        78        86        88        87        86        88
        86        88        89        86        88        90        89        88        90
        88        90        91        88        90        92        88        90        93
        91        90        92        91        90        93        92        90        93
        90        93        94        90        93        95        94        93        95
        93        95        96        93        95        97        96        95        97
        95        97        98        95        97        99        95        97       105
        98        97        99        98        97       105        99        97       105
        97        99       100        97        99       101        97        99       102
       100        99       101       100        99       102       101        99       102
        99       102       103        99       102       104       103       102       104
        97       105       106        97       105       107       106       105       107
       105       107       108       105       107       109       108       107       109
       107       109       110       107       109       111       107       109       112
       110       109       111       110       109       112       111       109       112
       109       112       113       109       112       114       113       112       114

       301 !NPHI: dihedrals
         1         5         7         8         1         5         7         9
         1         5         7        10         1         5        13        14
         1         5        13        15         2         1         5         6
         2         1         5         7         2         1         5        13
         3         1         5         6         3         1         5         7
         3         1         5        13         4         1         5         6
         4         1         5         7         4         1         5        13
         5         7        10        11         5         7        10        12
         5        13        15        16         5        13        15        17
         6         5         7         8         6         5         7         9
         6         5         7        10         6         5        13        14
         6         5        13        15         7         5        13        14
         7         5        13        15         8         7         5        13
         8         7        10        11         8         7        10        12
         9         7         5        13         9         7        10        11
         9         7        10        12        10         7         5        13
        13        15        17        18        13        15        17        19
        13        15        17        20        14        13        15        16
        14        13        15        17        15        17        20        21
        15        17        20        22        16        15        17        18
        16        15        17        19        16        15        17        20
        17        20        22        23        17        20        22        24
        18        17        20        21        18        17        20        22
        19        17        20        21        19        17        20        22
        20        22        24        25        20        22        24        26
        20        22        24        32        21        20        22        23
        21        20        22        24        22        24        26        27
        22        24        26        28        22        24        26        29
        22        24        32        33        22        24        32        34
        23        22        24        25        23        22        24        26
        23        22        24        32        24        26        29        30
        24        26        29        31        24        32        34        35
        24        32        34        36        25        24        26        27
        25        24        26        28        25        24        26        29
        25        24        32        33        25        24        32        34
        26        24        32        33        26        24        32        34
        27        26        24        32        27        26        29        30
        27        26        29        31        28        26        24        32
        28        26        29        30        28        26        29        31
        29        26        24        32        32        34        36        37
        32        34        36        38        32        34        36        39
        33        32        34        35        33        32        34        36
        34        36        39        40        34        36        39        41
        35        34        36        37        35        34        36        38
        35        34        36        39        36        39        41        42
        36        39        41        45        37        36        39        40
        37        36        39        41        38        36        39        40
        38        36        39        41        39        41        42        43
        39        41        42        44        39        41        42        50
        39        41        45        46        39        41        45        47
        39        41        45        53        40        39        41        42
        40        39        41        45        41        42        50        47
        41        42        50        51        41        42        50        52
        41        45        47        48        41        45        47        49
        41        45        47        50        41        45        53        54
        41        45        53        55        42        41        45        46
        42        41        45        47        42        41        45        53
        42        50        47        45        42        50        47        48
        42        50        47        49        43        42        41        45
        43        42        50        47        43        42        50        51
        43        42        50        52        44        42        41        45
        44        42        50        47        44        42        50        51
        44        42        50        52        45        41        42        50
        45        47        50        51        45        47        50        52
        45        53        55        56        45        53        55        57
        46        45        47        48        46        45        47        49
        46        45        47        50        46        45        53        54
        46        45        53        55        47        45        53        54
        47        45        53        55        48        47        45        53
        48        47        50        51        48        47        50        52
        49        47        45        53        49        47        50        51
        49        47        50        52        50        47        45        53
        53        55        57        58        53        55        57        59
        53        55        57        60        54        53        55        56
        54        53        55        57        55        57        60        61
        55        57        60        62        56        55        57        58
        56        55        57        59        56        55        57        60
        57        60        62        63        57        60        62        64
        58        57        60        61        58        57        60        62
        59        57        60        61        59        57        60        62
        60        62        64        65        60        62        64        66
        60        62        64        72        61        60        62        63
        61        60        62        64        62        64        66        67
        62        64        66        68        62        64        66        69
        62        64        72        73        62        64        72        74
        63        62        64        65        63        62        64        66
        63        62        64        72        64        66        69        70
        64        66        69        71        64        72        74        75
        64        72        74        78        65        64        66        67
        65        64        66        68        65        64        66        69
        65        64        72        73        65        64        72        74
        66        64        72        73        66        64        72        74
        67        66        64        72        67        66        69        70
        67        66        69        71        68        66        64        72
        68        66        69        70        68        66        69        71
        69        66        64        72        72        74        75        76
        72        74        75        77        72        74        75        83
        72        74        78        79        72        74        78        80
        72        74        78        86        73        72        74        75
        73        72        74        78        74        75        83        80
        74        75        83        84        74        75        83        85
        74        78        80        81        74        78        80        82
        74        78        80        83        74        78        86        87
        74        78        86        88        75        74        78        79
        75        74        78        80        75        74        78        86
        75        83        80        78        75        83        80        81
        75        83        80        82        76        75        74        78
        76        75        83        80        76        75        83        84
        76        75        83        85        77        75        74        78
        77        75        83        80        77        75        83        84
        77        75        83        85        78        74        75        83
        78        80        83        84        78        80        83        85
        78        86        88        89        78        86        88        90
        79        78        80        81        79        78        80        82
        79        78        80        83        79        78        86        87
        79        78        86        88        80        78        86        87
        80        78        86        88        81        80        78        86
        81        80        83        84        81        80        83        85
        82        80        78        86        82        80        83        84
        82        80        83        85        83        80        78        86
        86        88        90        91        86        88        90        92
        86        88        90        93        87        86        88        89
        87        86        88        90        88        90        93        94
        88        90        93        95        89        88        90        91
        89        88        90        92        89        88        90        93
        90        93        95        96        90        93        95        97
        91        90        93        94        91        90        93        95
        92        90        93        94        92        90        93        95
        93        95        97        98        93        95        97        99
        93        95        97       105        94        93        95        96
        94        93        95        97        95        97        99       100
        95        97        99       101        95        97        99       102
        95        97       105       106        95        97       105       107
        96        95        97        98        96        95        97        99
        96        95        97       105        97        99       102       103
        97        99       102       104        97       105       107       108
        97       105       107       109        98        97        99       100
        98        97        99       101        98        97        99       102
        98        97       105       106        98        97       105       107
        99        97       105       106        99        97       105       107
       100        99        97       105       100        99       102       103
       100        99       102       104       101        99        97       105
       101        99       102       103       101        99       102       104
       102        99        97       105       105       107       109       110
       105       107       109       111       105       107       109       112
       106       105       107       108       106       105       107       109
       107       109       112       113       107       109       112       114
       108       107       109       110       108       107       109       111
       108       107       109       112       110       109       112       113
       110       109       112       114       111       109       112       113
       111       109       112       114

        25 !NIMPHI: impropers
        13         5        15        14        10         7        12        11
        15        13        17        16        20        17        22        21
        22        20        24        23        32        24        34        33
        29        26        31        30        34        32        36        35
        39        36        41        40        41        39        45        42
        53        45        55        54        55        53        57        56
        60        57        62        61        62        60        64        63
        72        64        74        73        69        66        71        70
        74        72        78        75        86        78        88        87
        88        86        90        89        93        90        95        94
        95        93        97        96       105        97       107       106
       102        99       104       103       107       105       109       108
       112       109       114       113

        11 !NDON: donors
         1         2         1         3         1         4        15        16
        22        23        34        35        55        56        62        63
        88        89        95        96       107       108

        20 !NACC: acceptors
        11        10        12        10        14        13        21        20
        30        29        31        29        33        32        40        39
        54        53        61        60        70        69        71        69
        73        72        87        86        94        93       103       102
       104       102       106       105       113       112       114       112

         0 !NNB

         0         0         0         0         0         0         0         0
         0         0         0         0         0         0         0         0
         0         0         0         0         0         0         0         0
         0         0         0         0         0         0         0         0
         0         0         0         0         0         0         0         0
         0         0         0         0         0         0         0         0
         0         0         0         0         0         0         0         0
         0         0         0         0         0         0         0         0
         0         0         0         0         0         0         0         0
         0         0         0         0         0         0         0         0
         0         0         0         0         0         0         0         0
         0         0         0         0         0         0         0         0
         0         0         0         0         0         0         0         0
         0         0         0         0         0         0         0         0
         0         0

        30         0 !NGRP NST2
         0         2         0         6         2         0        12         1         0
        14         1         0        19         1         0        21         1         0
        25         2         0        31         1         0        33         1         0
        38         1         0        40         1         0        46         1         0
        49         1         0        52         1         0        54         1         0
        59         1         0        61         1         0        65         2         0
        71         1         0        73         1         0        79         1         0
        82         1         0        85         1         0        87         1         0
        92         1         0        94         1         0        98         2         0
       104         1         0       106         1         0       111         2         0

         0         0 !NUMLP NUMLPH

         9 !NCRTERM: cross-terms
        13        15        17        20        15        17        20        22
        20        22        24        32        22        24        32        34
        32        34        36        39        34        36        39        41
        39        41        45        53        41        45        53        55
        53        55        57        60        55        57        60        62
        60        62        64        72        62        64        72        74
        72        74        78        86        74        78        86        88
        86        88        90        93        88        90        93        95
        93        95        97       105        95        97       105       107
